
5 atoms
2 atom types
   0.0000000000   10.0000000000 xlo xhi
   0.0000000000   10.0000000000 ylo yhi
   0.0000000000   10.0000000000 zlo zhi
   0.0000000000    0.0000000000    0.0000000000 xy xz yz

Atoms # atomic

     1      1    5.3124245509    3.8752597666    3.5410283201
     2      1    3.7983152651    4.5956881077    4.3438696385
     3      1    5.4482518080    5.4043556772    4.3511704913
     4      1    5.1930516332    3.9052881736    5.2770182001
     5      2    4.9139208884    4.4696440159    4.3631439093
