
5 atoms
2 atom types
   0.0000000000   10.0000000000 xlo xhi
   0.0000000000   10.0000000000 ylo yhi
   0.0000000000   10.0000000000 zlo zhi
   0.0000000000    0.0000000000    0.0000000000 xy xz yz

Atoms # atomic

     1      1    5.3961645288    4.1165400769    3.5295035431
     2      1    3.9155614151    4.8939810307    4.3456317379
     3      1    5.5683008165    5.7404485737    4.3538466765
     4      1    5.3336576294    4.1688980582    5.2778852128
     5      2    5.0398654504    4.7551067302    4.3691573327
