
5 atoms
2 atom types
   0.0000000000   10.0000000000 xlo xhi
   0.0000000000   10.0000000000 ylo yhi
   0.0000000000   10.0000000000 zlo zhi
   0.0000000000    0.0000000000    0.0000000000 xy xz yz

Atoms # atomic

     1      1    5.4342115522    4.0599823589    3.5285471745
     2      1    4.0218212425    4.8296212050    4.3411190261
     3      1    5.6666248890    5.6560854970    4.3517097933
     4      1    5.3832178123    4.1401893038    5.2734668610
     5      2    5.1096890240    4.6981102769    4.3605895431
