
5 atoms
2 atom types
   0.0000000000   10.0000000000 xlo xhi
   0.0000000000   10.0000000000 ylo yhi
   0.0000000000   10.0000000000 zlo zhi
   0.0000000000    0.0000000000    0.0000000000 xy xz yz

Atoms # atomic

     1      1    5.4366519173    4.0771473026    3.5933657219
     2      1    3.9496927126    4.8539662581    4.4181797934
     3      1    5.6299607695    5.6822077975    4.4268381554
     4      1    5.3400779916    4.1712965617    5.3557787123
     5      2    5.0745049867    4.7165110092    4.4308797376
