
5 atoms
2 atom types
   0.0000000000   10.0000000000 xlo xhi
   0.0000000000   10.0000000000 ylo yhi
   0.0000000000   10.0000000000 zlo zhi
   0.0000000000    0.0000000000    0.0000000000 xy xz yz

Atoms # atomic

     1      1    5.4112636030    4.1928206561    3.5909474466
     2      1    3.9686175980    4.9954776986    4.4202586917
     3      1    5.6233695956    5.8326298089    4.4325991530
     4      1    5.3387614677    4.3180296493    5.3596722008
     5      2    5.0692368379    4.8582730942    4.4270121339
