
5 atoms
2 atom types
   0.0000000000   10.0000000000 xlo xhi
   0.0000000000   10.0000000000 ylo yhi
   0.0000000000   10.0000000000 zlo zhi
   0.0000000000    0.0000000000    0.0000000000 xy xz yz

Atoms # atomic

     1      1    5.4061071570    4.0893858404    3.5782907278
     2      1    4.0165780230    4.8695852643    4.3993359836
     3      1    5.6337831412    5.7024753419    4.4049348198
     4      1    5.3717015465    4.1733309788    5.3348528848
     5      2    5.0920030358    4.7266767681    4.4162334289
