
5 atoms
2 atom types
   0.0000000000   10.0000000000 xlo xhi
   0.0000000000   10.0000000000 ylo yhi
   0.0000000000   10.0000000000 zlo zhi
   0.0000000000    0.0000000000    0.0000000000 xy xz yz

Atoms # atomic

     1      1    5.4149769132    4.1112815675    3.6103288725
     2      1    3.9614295009    4.8905923270    4.4355729943
     3      1    5.6371058538    5.7180408869    4.4470097486
     4      1    5.2983666786    4.2300722192    5.3841764542
     5      2    5.0631349818    4.7607583502    4.4587348215
