
5 atoms
2 atom types
   0.0000000000   10.0000000000 xlo xhi
   0.0000000000   10.0000000000 ylo yhi
   0.0000000000   10.0000000000 zlo zhi
   0.0000000000    0.0000000000    0.0000000000 xy xz yz

Atoms # atomic

     1      1    5.5386847803    3.9593359581    3.5960265566
     2      1    4.0631841329    4.7053458215    4.4178473447
     3      1    5.7627232343    5.5242751772    4.4266408952
     4      1    5.4241912289    4.0047027856    5.3572901940
     5      2    5.1835570816    4.5618710541    4.4316756141
