
5 atoms
2 atom types
   0.0000000000   10.0000000000 xlo xhi
   0.0000000000   10.0000000000 ylo yhi
   0.0000000000   10.0000000000 zlo zhi
   0.0000000000    0.0000000000    0.0000000000 xy xz yz

Atoms # atomic

     1      1    5.4922443594    4.1388247495    3.6780402629
     2      1    4.0496401482    4.9249569801    4.5216093291
     3      1    5.7131410153    5.7692619324    4.5274714372
     4      1    5.4344882594    4.2186644991    5.4790776146
     5      2    5.1551255936    4.7834032367    4.5364632752
