
5 atoms
2 atom types
   0.0000000000   10.0000000000 xlo xhi
   0.0000000000   10.0000000000 ylo yhi
   0.0000000000   10.0000000000 zlo zhi
   0.0000000000    0.0000000000    0.0000000000 xy xz yz

Atoms # atomic

     1      1    5.4416146627    3.9597054836    3.5529200745
     2      1    4.0008297366    4.7157079390    4.3642656534
     3      1    5.6577032865    5.5325010383    4.3740341396
     4      1    5.3599204222    4.0082053216    5.2992023898
     5      2    5.1010074690    4.5700734946    4.3886927758
