
5 atoms
2 atom types
   0.0000000000   10.0000000000 xlo xhi
   0.0000000000   10.0000000000 ylo yhi
   0.0000000000   10.0000000000 zlo zhi
   0.0000000000    0.0000000000    0.0000000000 xy xz yz

Atoms # atomic

     1      1    5.4743738235    4.1141194825    3.6148306892
     2      1    3.9885469942    4.9015205255    4.4455916051
     3      1    5.6559184550    5.7325908138    4.4581130074
     4      1    5.3975935538    4.2120590310    5.3910639371
     5      2    5.1134831644    4.7585203039    4.4653184072
