-2.395387762000000009e+01
-2.398401493000000073e+01
-2.399306859999999730e+01
-2.395242247000000191e+01
-2.397155982000000307e+01
-2.396151639999999716e+01
-2.400315069999999906e+01
-2.399630327000000207e+01
-2.394413011999999696e+01
-2.396826148999999617e+01
-2.399753684999999948e+01
-2.398755483000000055e+01
-2.397664413999999766e+01
-2.398336506000000057e+01
-2.399737244000000302e+01
-2.397120579999999990e+01
-2.396486012000000088e+01
-2.396766956000000093e+01
-2.398377013000000346e+01
-2.398985590000000201e+01
-2.396835138000000143e+01
-2.394928278000000077e+01
-2.399687035999999907e+01
-2.399072329999999909e+01
-2.395142360999999909e+01
-2.398278637000000302e+01
-2.395234437999999955e+01
-2.399037882000000010e+01
-2.395732161000000104e+01
-2.397910273000000103e+01
-2.396136484999999894e+01
-2.394821054999999888e+01
-2.397831051000000002e+01
-2.398412861999999990e+01
-2.399076686000000080e+01
-2.399416448000000202e+01
-2.394388140999999948e+01
-2.399310853999999793e+01
-2.399529884000000024e+01
-2.394987940000000037e+01
-2.399228764000000069e+01
-2.395804138999999822e+01
-2.394226799000000128e+01
-2.394201069999999731e+01
-2.396190569999999909e+01
-2.397308381999999938e+01
-2.398797383999999866e+01
-2.396580170000000010e+01
-2.398755861999999794e+01
-2.397489384000000001e+01
-2.393629072999999963e+01
-2.398868563999999992e+01
-2.399174735999999797e+01
-2.396403486000000171e+01
-2.398625030999999908e+01
-2.398586626000000166e+01
-2.399642354000000211e+01
-2.395897195999999951e+01
-2.398439610000000144e+01
-2.397887793999999673e+01
-2.396683748000000236e+01
-2.399615112999999766e+01
-2.399392308999999912e+01
-2.399002584999999854e+01
-2.396898738000000151e+01
-2.395295940000000101e+01
-2.399803679000000045e+01
-2.396165925000000030e+01
-2.398111436000000296e+01
-2.398247359999999873e+01
-2.397375179000000145e+01
-2.397914650000000236e+01
-2.398446056000000226e+01
-2.397123402000000070e+01
-2.397439595999999895e+01
-2.394585603999999890e+01
-2.396514863999999889e+01
-2.397569019000000168e+01
-2.399394061999999650e+01
-2.399114671999999970e+01
-2.394285861999999909e+01
-2.394819256999999979e+01
-2.397969682999999819e+01
-2.395063187999999954e+01
-2.396951213999999908e+01
-2.396874976999999873e+01
-2.396460785000000016e+01
-2.395705899000000016e+01
-2.399150758000000394e+01
-2.398523285999999999e+01
-2.396164161000000092e+01
-2.399980080999999643e+01
-2.394676836000000009e+01
-2.398943397000000033e+01
-2.398898965000000061e+01
-2.398659659999999860e+01
-2.398420305999999869e+01
-2.395649188999999879e+01
-2.399959963999999957e+01
-2.399364710000000045e+01
-2.399438569000000143e+01
-2.396547500000000142e+01
-2.396484751999999929e+01
-2.396820162000000209e+01
-2.399156157999999905e+01
-2.398827779999999876e+01
-2.397605024000000284e+01
-2.396933733000000188e+01
-2.395946280000000073e+01
-2.396948615999999888e+01
-2.398217082000000033e+01
-2.397048383999999999e+01
-2.397745975999999857e+01
-2.398976255000000180e+01
-2.393683970000000016e+01
-2.396055136000000374e+01
-2.399019828000000132e+01
-2.395862065999999757e+01
-2.398173248999999885e+01
-2.399180605999999827e+01
-2.398307566999999807e+01
-2.395919418000000078e+01
-2.398758654999999962e+01
-2.395643889000000115e+01
-2.398917519999999826e+01
-2.394251699999999872e+01
-2.400092812000000109e+01
-2.399154520000000090e+01
-2.396487546999999907e+01
-2.396579859999999940e+01
-2.396049427999999892e+01
-2.397186020999999911e+01
-2.395406051000000147e+01
-2.394041629999999898e+01
-2.397445944999999767e+01
-2.396240020000000115e+01
-2.396042206999999991e+01
-2.397867011000000304e+01
-2.394670951999999886e+01
-2.396874517000000182e+01
-2.392316959000000054e+01
-2.397939537999999970e+01
-2.396555315000000164e+01
-2.398250126000000293e+01
-2.399104674999999887e+01
-2.399215300999999911e+01
-2.395697585000000274e+01
-2.396596459999999951e+01
-2.398651320999999825e+01
-2.394916514999999890e+01
-2.399352348000000035e+01
-2.394313070999999837e+01
-2.397768686999999943e+01
-2.398181575000000265e+01
-2.399119439000000042e+01
-2.398481191000000123e+01
-2.395762994000000035e+01
-2.398312682999999979e+01
-2.398598743000000155e+01
-2.397988748999999942e+01
-2.395540168000000136e+01
-2.397991998999999907e+01
-2.396364334999999812e+01
-2.398220528999999956e+01
-2.399097829000000104e+01
-2.396053392999999687e+01
-2.397908213000000188e+01
-2.397544377999999909e+01
-2.397973566000000289e+01
-2.398008014000000188e+01
-2.396667186999999899e+01
-2.399497011999999785e+01
-2.397307823999999954e+01
-2.398950221999999854e+01
-2.399529998999999947e+01
-2.398800050000000184e+01
-2.391070420000000141e+01
-2.396942592999999988e+01
-2.393369804000000300e+01
-2.398017228000000145e+01
-2.399520142000000078e+01
-2.396226446000000010e+01
-2.396458110999999747e+01
-2.396735475999999920e+01
-2.396277291000000176e+01
-2.399031447000000128e+01
-2.398109042999999829e+01
-2.398473001999999710e+01
-2.399176818000000111e+01
-2.397491078999999914e+01
-2.397658868000000254e+01
-2.396812458999999862e+01
-2.397643032999999946e+01
-2.396701277000000019e+01
-2.396700311000000028e+01
-2.397085532999999913e+01
-2.399830632000000108e+01
-2.398801568000000017e+01
-2.399062775000000158e+01
-2.395207328000000047e+01
