2.329499999999999904e-01 -1.592439999999999967e-01 9.968000000000000471e-02 -1.051800999999999986e+00 2.124739999999999962e-01 -7.421999999999999778e-03 5.851089999999999902e-01 1.229627000000000026e+00 -1.097840000000000066e-01 -4.211000000000000333e-03 1.582000000000000073e-02 -6.103669999999999929e-01 2.390879999999999950e-01 -1.297787000000000024e+00 6.277789999999999759e-01
3.679720000000000213e-01 -3.106990000000000030e-01 -2.783039999999999958e-01 1.298390000000000100e-01 1.865940000000000099e-01 9.536600000000000632e-02 -4.037749999999999950e-01 -6.735649999999999693e-01 -1.017269999999999980e-01 1.199140000000000067e-01 -2.695110000000000006e-01 5.311699999999999755e-02 -2.145809999999999940e-01 1.067517000000000049e+00 2.314509999999999901e-01
-2.062120000000000064e-01 -1.427800000000000076e-02 9.875999999999999363e-03 5.063250000000000250e-01 -7.643600000000000394e-02 -6.142999999999999849e-02 1.409690000000000110e-01 4.244149999999999867e-01 1.626670000000000060e-01 -1.289730000000000043e-01 4.380100000000000104e-01 -4.654610000000000136e-01 -3.123159999999999825e-01 -7.712599999999999456e-01 3.541079999999999783e-01
-3.477910000000000168e-01 4.833459999999999979e-01 8.259600000000000275e-02 1.133888999999999925e+00 -1.588229999999999920e-01 -4.357599999999999668e-02 -3.623720000000000274e-01 -6.204659999999999620e-01 2.411500000000000102e-02 -2.943069999999999853e-01 5.866080000000000183e-01 -2.990470000000000073e-01 -1.292649999999999910e-01 -2.905869999999999842e-01 2.352150000000000074e-01
8.034399999999999875e-02 -3.665500000000000008e-02 4.778080000000000105e-01 -9.664650000000000185e-01 1.415810000000000124e-01 1.511999999999999976e-02 7.003299999999999803e-02 1.381550000000000000e-01 -4.528399999999999787e-02 2.916159999999999863e-01 -5.836149999999999949e-01 3.325099999999999723e-01 5.264619999999999855e-01 3.412009999999999765e-01 -7.796030000000000459e-01
-3.189110000000000000e-01 -1.618759999999999921e-01 -4.152379999999999960e-01 8.989070000000000116e-01 -4.500300000000000133e-02 -2.022339999999999971e-01 6.836200000000000609e-02 7.365949999999999998e-01 1.167679999999999968e-01 -1.696320000000000050e-01 2.984709999999999863e-01 -1.194230000000000014e-01 -4.786500000000000199e-01 -8.281659999999999577e-01 6.197730000000000183e-01
-8.413900000000000545e-02 -8.170800000000000285e-02 3.235600000000000281e-02 -2.180269999999999986e-01 5.444000000000000054e-03 -1.401949999999999863e-01 -1.643000000000000016e-02 -1.757589999999999986e-01 2.163410000000000055e-01 1.336940000000000073e-01 2.228950000000000098e-01 -3.044379999999999864e-01 1.843019999999999936e-01 3.068200000000000094e-02 1.956170000000000131e-01
6.793899999999999939e-02 1.378700000000000064e-02 4.066009999999999902e-01 -2.059940000000000104e-01 1.228110000000000035e-01 1.421550000000000036e-01 -3.043699999999999878e-02 1.895000000000000157e-02 6.152400000000000230e-02 -2.856099999999999958e-02 1.492350000000000065e-01 -3.747489999999999988e-01 1.974599999999999966e-01 -3.048290000000000166e-01 -2.358230000000000048e-01
6.313819999999999988e-01 -7.419280000000000319e-01 -1.193044999999999911e+00 -7.702419999999999822e-01 1.334499999999999922e-02 2.911449999999999871e-01 -6.037399999999999711e-02 -7.781280000000000419e-01 -2.097600000000000159e-02 1.261839999999999906e-01 -2.623869999999999814e-01 5.376020000000000243e-01 7.323599999999999555e-02 1.769975000000000076e+00 3.851379999999999804e-01
-2.114999999999999936e-01 2.780699999999999839e-02 -1.910749999999999948e-01 1.267435000000000089e+00 -9.504600000000000548e-02 -3.542000000000000010e-02 -7.083799999999999819e-02 3.464450000000000029e-01 -6.152000000000000350e-03 -1.751500000000000001e-01 9.675799999999999679e-02 8.513500000000000234e-02 -8.133869999999999711e-01 -3.694689999999999919e-01 1.451880000000000115e-01
1.039479999999999987e-01 -9.994699999999999418e-02 7.975000000000000144e-02 -2.427779999999999938e-01 -5.459100000000000064e-02 8.728500000000000147e-02 2.204480000000000051e-01 1.127599999999999991e-01 8.189899999999999958e-02 1.628179999999999905e-01 -3.353130000000000277e-01 4.163850000000000051e-01 -2.387130000000000085e-01 3.733040000000000247e-01 -6.661369999999999791e-01
2.031159999999999910e-01 -1.782799999999999940e-01 -2.143510000000000137e-01 5.799410000000000398e-01 1.061170000000000030e-01 1.430170000000000052e-01 -5.074570000000000469e-01 -4.172159999999999758e-01 -1.368769999999999987e-01 -1.330620000000000136e-01 -1.669859999999999955e-01 3.454499999999999932e-02 -1.423780000000000046e-01 6.566060000000000230e-01 1.731719999999999926e-01
-3.110999999999999877e-02 -4.267580000000000262e-01 -5.923169999999999824e-01 5.976540000000000186e-01 1.108999999999999960e-03 -1.218069999999999986e-01 -3.473910000000000053e-01 8.639900000000000357e-02 -8.075200000000000433e-02 -7.790999999999999315e-02 -2.808030000000000248e-01 3.229929999999999746e-01 -1.413909999999999889e-01 6.200630000000000308e-01 4.718519999999999937e-01
8.444100000000000217e-02 -1.374329999999999996e-01 2.855880000000000085e-01 -5.322829999999999506e-01 1.015019999999999950e-01 -2.996499999999999858e-02 -1.372410000000000019e-01 -3.719529999999999781e-01 1.466580000000000106e-01 2.930980000000000252e-01 -3.598529999999999784e-01 3.807400000000000229e-01 2.921619999999999773e-01 7.678589999999999582e-01 -7.825050000000000061e-01
1.987740000000000062e-01 -3.212470000000000048e-01 -4.617209999999999925e-01 2.738280000000000158e-01 1.889629999999999921e-01 5.134600000000000275e-02 -9.765300000000000369e-02 2.147529999999999994e-01 1.352599999999999983e-02 -5.159000000000000391e-03 2.938500000000000140e-02 2.858000000000000124e-02 -3.925069999999999948e-01 -9.175800000000000622e-02 3.680660000000000043e-01
1.337629999999999930e-01 8.146200000000000663e-02 7.472499999999999976e-02 5.987599999999999867e-02 -1.081280000000000019e-01 -6.190899999999999875e-02 -2.058750000000000024e-01 -1.181967999999999908e+00 -1.749890000000000057e-01 1.885999999999999829e-02 2.523699999999999902e-02 -3.533560000000000034e-01 -5.905999999999999792e-03 1.181953999999999949e+00 5.156140000000000168e-01
-3.958709999999999729e-01 4.408009999999999984e-01 8.481739999999999835e-01 4.410649999999999848e-01 4.614700000000000052e-02 -5.008399999999999658e-02 2.010470000000000035e-01 8.783140000000000391e-01 -4.784700000000000064e-02 -1.119460000000000038e-01 -1.757900000000000088e-02 -3.830219999999999736e-01 -1.341229999999999922e-01 -1.347717000000000054e+00 -3.675399999999999778e-01
4.272549999999999959e-01 -5.218019999999999881e-01 -4.508170000000000233e-01 -2.846989999999999799e-01 -2.292839999999999878e-01 1.857330000000000092e-01 6.138470000000000315e-01 8.106210000000000360e-01 3.520899999999999724e-02 -7.186999999999999812e-03 4.826999999999999694e-03 -2.486649999999999971e-01 -7.491729999999999778e-01 -6.431599999999999817e-02 4.778959999999999875e-01
-2.961710000000000176e-01 5.791239999999999721e-01 3.767840000000000078e-01 -8.933900000000000174e-01 7.051699999999999635e-02 -2.323979999999999935e-01 1.121980000000000061e-01 -9.703100000000000613e-02 -1.992599999999999927e-02 1.119809999999999972e-01 2.040399999999999991e-01 -1.636000000000000084e-03 9.654270000000000351e-01 -7.575769999999999449e-01 -1.231219999999999953e-01
-9.604999999999999649e-02 -2.067140000000000088e-01 2.694819999999999993e-01 -4.074420000000000264e-01 -2.678699999999999831e-02 6.492900000000000060e-02 2.031699999999999895e-01 7.018050000000000122e-01 1.720980000000000010e-01 -2.293500000000000053e-02 -1.280830000000000024e-01 -4.166000000000000258e-02 3.234159999999999813e-01 -3.405250000000000221e-01 -4.642410000000000148e-01
6.079299999999999982e-02 -4.666770000000000085e-01 -2.440140000000000087e-01 -5.509859999999999758e-01 8.040000000000000271e-03 7.547900000000000442e-02 4.010340000000000016e-01 1.019508999999999999e+00 2.987179999999999835e-01 1.802479999999999916e-01 -5.386560000000000237e-01 5.175079999999999680e-01 -9.113699999999999579e-02 -2.203499999999999903e-02 -6.479770000000000252e-01
-2.121200000000000030e-01 3.832690000000000263e-01 6.571430000000000327e-01 1.341393999999999975e+00 -5.750700000000000256e-02 4.674600000000000283e-02 -5.287539999999999463e-01 -5.414069999999999716e-01 -1.338620000000000088e-01 -1.198530000000000012e-01 -1.085340000000000055e-01 -2.304750000000000132e-01 -4.807629999999999959e-01 3.239079999999999737e-01 -3.399730000000000252e-01
2.477370000000000128e-01 -2.915050000000000141e-01 -1.578660000000000063e-01 -1.552580000000000071e-01 3.098239999999999883e-01 -6.340000000000000149e-03 -2.206249999999999878e-01 1.265179999999999916e-01 -1.580699999999999883e-01 4.874900000000000067e-02 -2.301010000000000000e-01 -1.386310000000000042e-01 8.002299999999999691e-02 8.519300000000000483e-02 4.594280000000000030e-01
1.133880000000000027e-01 1.818300000000000125e-02 1.133499999999999959e-02 -6.383750000000000258e-01 3.902059999999999973e-01 -1.689009999999999956e-01 -1.394179999999999864e-01 4.001600000000000296e-02 -5.917100000000000137e-02 2.388589999999999880e-01 4.919999999999999894e-03 -1.426649999999999863e-01 4.259189999999999920e-01 -4.534030000000000005e-01 3.592409999999999770e-01
-8.429899999999999893e-02 4.878790000000000071e-01 6.683440000000000492e-01 -3.518189999999999928e-01 2.091050000000000131e-01 -1.849629999999999885e-01 7.700930000000000275e-01 1.303813000000000111e+00 -4.055299999999999877e-02 2.249470000000000081e-01 1.382780000000000120e-01 -2.820650000000000102e-01 -5.588340000000000529e-01 -2.138876000000000221e+00 -1.605949999999999878e-01
-4.155999999999999972e-02 -3.546270000000000255e-01 1.849580000000000113e-01 5.443400000000000460e-01 -1.466010000000000091e-01 1.955179999999999974e-01 6.732699999999999796e-02 4.003459999999999797e-01 1.912119999999999931e-01 -2.371399999999999897e-02 -1.740839999999999888e-01 -2.684500000000000081e-02 -5.466990000000000460e-01 2.753789999999999849e-01 -5.444250000000000478e-01
4.457920000000000216e-01 -2.061139999999999917e-01 -1.862459999999999949e-01 -1.531363999999999947e+00 2.838900000000000104e-02 1.078930000000000028e-01 3.781390000000000029e-01 1.072359999999999980e-01 -1.287359999999999893e-01 -1.021610000000000018e-01 2.066499999999999934e-02 -3.948769999999999780e-01 8.095040000000000013e-01 4.997200000000000253e-02 6.022750000000000048e-01
-1.859760000000000024e-01 3.728739999999999832e-01 4.018729999999999802e-01 -9.358800000000000452e-02 -2.813620000000000010e-01 -1.828300000000000064e-02 1.115420000000000023e-01 -5.044499999999999540e-01 3.508599999999999913e-02 3.941299999999999665e-02 2.472999999999999851e-02 2.116639999999999910e-01 1.336100000000000065e-01 3.708690000000000042e-01 -6.348639999999999839e-01
3.567359999999999975e-01 -7.315089999999999648e-01 -5.684630000000000516e-01 4.943999999999999784e-02 -1.535729999999999873e-01 1.364660000000000040e-01 8.447379999999999889e-01 1.189915000000000056e+00 1.990099999999999855e-02 9.829300000000000537e-02 -2.767890000000000073e-01 2.484530000000000072e-01 -1.350073999999999996e+00 -2.817400000000000113e-02 1.639500000000000124e-01
1.095299999999999919e-02 1.964300000000000074e-02 -2.487360000000000126e-01 7.124880000000000102e-01 -1.097049999999999970e-01 -1.429350000000000065e-01 4.608630000000000226e-01 7.062920000000000309e-01 -1.022969999999999990e-01 1.895749999999999935e-01 -2.018129999999999924e-01 4.554570000000000007e-01 -1.373517000000000099e+00 -4.143410000000000148e-01 3.899999999999999994e-02
3.000749999999999806e-01 -3.800250000000000017e-01 -6.449160000000000448e-01 7.683600000000000430e-01 -4.618709999999999760e-01 1.364879999999999982e-01 4.101099999999999746e-01 2.314400000000000138e-02 5.043999999999999873e-02 -1.958310000000000051e-01 5.236030000000000406e-01 -6.691279999999999450e-01 -1.282794999999999908e+00 2.949189999999999867e-01 1.127075999999999967e+00
4.131920000000000037e-01 -7.637779999999999569e-01 -8.423289999999999944e-01 -5.495689999999999742e-01 4.460879999999999845e-01 -1.067870000000000069e-01 2.367479999999999862e-01 1.112201999999999913e+00 -1.193150000000000044e-01 1.734499999999999931e-02 -5.566200000000000314e-02 -3.860069999999999890e-01 -1.171620000000000023e-01 -7.398160000000000291e-01 1.453686000000000034e+00
2.380849999999999911e-01 -5.623789999999999623e-01 -7.504779999999999784e-01 -3.908090000000000175e-01 -2.032399999999999832e-02 -3.953600000000000170e-02 3.343969999999999998e-01 1.947299999999999864e-01 2.185640000000000083e-01 3.225689999999999946e-01 -3.698839999999999906e-01 4.908100000000000240e-01 -5.035490000000000244e-01 7.581320000000000281e-01 7.965800000000000658e-02
1.273200000000000026e-02 -1.468599999999999905e-01 -1.867630000000000123e-01 -1.509250000000000036e-01 3.624029999999999752e-01 -1.657430000000000014e-01 5.919999999999999915e-03 7.032040000000000513e-01 -7.792699999999999627e-02 4.629899999999999988e-02 -6.974000000000000164e-03 -1.599810000000000121e-01 8.602700000000000624e-02 -9.125520000000000298e-01 5.910170000000000146e-01
7.688899999999999901e-02 -1.340399999999999925e-02 -2.789719999999999978e-01 -1.492899999999999956e-02 -1.514399999999999948e-02 1.650099999999999831e-02 -1.314589999999999925e-01 -3.341580000000000106e-01 -2.993900000000000033e-02 6.554300000000000403e-02 -1.421850000000000058e-01 4.907270000000000243e-01 4.078000000000000028e-03 5.046869999999999967e-01 -1.989529999999999910e-01
-3.902699999999999919e-02 -2.976469999999999949e-01 -1.273990000000000122e-01 -7.496300000000000185e-01 -8.186999999999999833e-02 -5.872900000000000342e-02 1.219309999999999977e-01 -1.160120000000000040e-01 1.035080000000000028e-01 4.861399999999999749e-02 -7.382900000000000573e-02 -4.702100000000000030e-02 6.181029999999999580e-01 5.693230000000000235e-01 1.291799999999999893e-01
-2.967580000000000218e-01 4.239510000000000223e-01 9.612319999999999753e-01 7.196669999999999456e-01 4.490600000000000147e-02 -4.828600000000000253e-02 -6.769800000000000262e-01 -1.096444999999999892e+00 -2.277600000000000111e-02 -6.694600000000000550e-02 3.460460000000000202e-01 -5.967419999999999947e-01 3.212849999999999873e-01 2.816449999999999787e-01 -2.936900000000000066e-01
8.850900000000000434e-02 -1.381890000000000063e-01 2.841999999999999908e-03 2.956590000000000051e-01 1.167160000000000003e-01 1.163400000000000024e-02 -3.981399999999999939e-01 -4.516350000000000087e-01 3.197400000000000242e-02 1.154550000000000021e-01 -1.474409999999999887e-01 8.601000000000000312e-02 -1.040790000000000048e-01 6.217679999999999874e-01 -1.331980000000000108e-01
-1.007580000000000003e-01 -5.103699999999999903e-02 1.118289999999999978e-01 -2.545600000000000085e-01 -1.585110000000000130e-01 -8.725700000000000123e-02 2.534919999999999951e-01 -4.852100000000000163e-02 2.623099999999999876e-01 1.116609999999999964e-01 3.053699999999999748e-01 -2.991829999999999767e-01 -9.573999999999999178e-03 -4.926200000000000023e-02 1.255399999999999919e-02
3.969650000000000123e-01 -5.785519999999999552e-01 -1.139091999999999993e+00 1.149761999999999951e+00 -1.313010000000000010e-01 1.400649999999999951e-01 1.961100000000000065e-01 3.371040000000000147e-01 -3.302200000000000274e-02 -1.510670000000000068e-01 1.462009999999999976e-01 1.625959999999999905e-01 -1.591890999999999945e+00 2.265330000000000121e-01 8.699900000000000411e-01
-2.438069999999999959e-01 6.573199999999999876e-02 6.227059999999999818e-01 4.054699999999999971e-01 -1.786270000000000080e-01 6.256599999999999662e-02 -5.840200000000000252e-02 -1.804709999999999925e-01 1.993600000000000094e-01 -1.701300000000000034e-02 -1.010400000000000013e-02 3.290400000000000269e-02 -8.520099999999999896e-02 3.035300000000000220e-01 -9.180460000000000287e-01
-8.149299999999999600e-02 -1.922770000000000035e-01 -6.205450000000000133e-01 -9.471840000000000259e-01 1.909200000000000064e-01 -2.592309999999999892e-01 3.721160000000000023e-01 9.310370000000000035e-01 1.020419999999999938e-01 7.815300000000000025e-02 3.207499999999999796e-01 8.544599999999999418e-02 5.784359999999999502e-01 -1.250434999999999963e+00 6.928149999999999586e-01
3.063629999999999964e-01 2.181770000000000098e-01 2.433029999999999915e-01 1.360749999999999904e+00 -1.579589999999999883e-01 3.782539999999999791e-01 3.272959999999999758e-01 1.562620000000000120e-01 2.274100000000000080e-02 1.033580000000000054e-01 -5.165499999999999953e-02 2.923589999999999800e-01 -2.097690000000000055e+00 -1.653729999999999922e-01 -9.362639999999999851e-01
-5.906169999999999476e-01 4.329219999999999735e-01 7.799500000000000322e-01 1.092843000000000009e+00 -6.519199999999999995e-02 -1.209049999999999986e-01 2.485400000000000109e-02 7.039819999999999967e-01 -6.621000000000000149e-03 -1.639390000000000014e-01 4.597899999999999904e-02 -3.321850000000000080e-01 -3.631329999999999836e-01 -1.117634999999999934e+00 -3.204150000000000054e-01
4.512909999999999977e-01 -9.181589999999999474e-01 -1.332348000000000088e+00 -1.470950000000000035e-01 9.693400000000000627e-02 -1.566180000000000072e-01 -1.864319999999999866e-01 -4.946329999999999893e-01 7.023200000000000276e-02 2.292450000000000043e-01 7.421200000000000019e-02 1.081909999999999955e-01 -3.469320000000000181e-01 1.241616999999999971e+00 1.310710999999999959e+00
-2.682060000000000000e-01 5.590439999999999854e-01 6.330649999999999888e-01 8.100129999999999830e-01 -7.876600000000000268e-02 -1.593269999999999964e-01 -2.610160000000000258e-01 -6.074359999999999760e-01 -1.447199999999999875e-01 1.820599999999999996e-02 1.799920000000000131e-01 -2.182900000000000118e-01 -2.989160000000000150e-01 -5.272199999999999803e-02 -1.106759999999999966e-01
-2.266829999999999956e-01 2.175620000000000054e-01 -2.870090000000000141e-01 4.757739999999999747e-01 -9.212199999999999556e-02 -1.330729999999999968e-01 4.699899999999999911e-02 9.592799999999999938e-02 8.574000000000000024e-03 -1.475899999999999990e-01 3.984690000000000176e-01 -1.746299999999999936e-02 -1.485529999999999906e-01 -6.194840000000000346e-01 4.292639999999999789e-01
-2.248870000000000036e-01 3.226660000000000084e-01 6.012070000000000469e-01 9.698080000000000034e-01 -6.545099999999999529e-02 9.358900000000000552e-02 -2.182959999999999900e-01 -5.829159999999999897e-01 2.333689999999999931e-01 -2.677000000000000126e-03 1.832749999999999935e-01 -8.079899999999999582e-02 -5.238930000000000531e-01 1.418840000000000101e-01 -8.469189999999999774e-01
2.096750000000000003e-01 -3.683870000000000200e-01 -1.015889999999999987e-01 2.906790000000000207e-01 -2.050579999999999903e-01 1.832030000000000047e-01 -5.356899999999999856e-02 -4.615290000000000226e-01 1.500170000000000115e-01 2.046600000000000155e-02 -7.298799999999999732e-02 -9.737300000000000122e-02 -4.674360000000000182e-01 1.107911000000000090e+00 -1.335409999999999930e-01
4.687029999999999808e-01 -4.636399999999999966e-01 -5.867620000000000058e-01 5.826789999999999470e-01 -8.721900000000000486e-02 4.559200000000000058e-02 1.651799999999999935e-01 -3.193219999999999947e-01 6.485899999999999999e-02 2.866319999999999979e-01 -4.738200000000000051e-02 1.429439999999999877e-01 -1.503239999999999910e+00 9.177260000000000417e-01 3.340000000000000191e-01
-9.197400000000000020e-02 8.260999999999999455e-01 1.074732999999999938e+00 6.402400000000000313e-01 1.759189999999999920e-01 -5.202299999999999980e-02 4.214780000000000193e-01 9.182510000000000394e-01 -1.903680000000000094e-01 1.285999999999999990e-02 2.085650000000000004e-01 -5.835430000000000339e-01 -9.830830000000000402e-01 -2.128880999999999801e+00 -2.488400000000000056e-01
-2.745270000000000210e-01 1.872699999999999920e-01 6.280339999999999812e-01 -4.266949999999999910e-01 -4.941099999999999659e-02 -3.706000000000000266e-02 9.130399999999999627e-02 9.534700000000000120e-02 1.297439999999999982e-01 1.494870000000000088e-01 -3.575150000000000272e-01 4.370519999999999960e-01 4.604280000000000039e-01 1.241479999999999945e-01 -1.158463000000000021e+00
-9.822999999999999787e-02 -3.887920000000000265e-01 -4.474999999999999811e-02 -8.046300000000000674e-02 -1.998070000000000124e-01 -1.432889999999999997e-01 1.292310000000000125e-01 5.715999999999999727e-03 2.217320000000000124e-01 2.429000000000000048e-01 -1.825440000000000118e-01 1.486310000000000131e-01 -1.933739999999999903e-01 7.657030000000000225e-01 -1.827670000000000128e-01
4.467059999999999920e-01 -4.112589999999999857e-01 -3.325299999999999923e-01 -1.037115000000000009e+00 -1.752589999999999981e-01 1.617699999999999971e-01 3.426480000000000081e-01 1.211100000000000024e-02 -1.873100000000000112e-02 1.680979999999999974e-01 -3.114810000000000079e-01 2.298030000000000073e-01 7.948700000000000210e-02 8.859010000000000495e-01 -4.012700000000000294e-02
-2.496569999999999900e-01 1.614600000000000063e-02 2.600500000000000034e-02 5.828729999999999745e-01 -1.914339999999999931e-01 -1.750339999999999951e-01 -2.000199999999999895e-02 -1.286660000000000026e-01 6.416700000000000181e-02 2.134250000000000036e-01 -4.544400000000000106e-01 7.890080000000000426e-01 -5.257110000000000394e-01 7.589740000000000375e-01 -7.048769999999999758e-01
9.646100000000000507e-02 1.008280000000000010e-01 3.882260000000000155e-01 1.758840000000000126e-01 -1.797299999999999939e-02 5.275799999999999934e-02 3.283360000000000167e-01 6.665999999999999703e-01 -2.059549999999999992e-01 -9.133700000000000152e-02 -8.486299999999999399e-02 -5.052159999999999984e-01 -5.098040000000000349e-01 -6.643710000000000448e-01 2.700080000000000258e-01
-1.428600000000000009e-02 -1.926640000000000019e-01 -4.872949999999999782e-01 -3.999780000000000002e-01 6.992400000000000004e-02 -1.410770000000000080e-01 1.722410000000000052e-01 4.382880000000000109e-01 1.061400000000000017e-02 1.688699999999999923e-02 6.720800000000000385e-02 1.475799999999999890e-01 2.252149999999999985e-01 -3.828520000000000256e-01 4.706350000000000255e-01
4.662569999999999770e-01 -6.224730000000000540e-01 -9.029570000000000096e-01 -8.382519999999999971e-01 6.119299999999999740e-02 1.820319999999999994e-01 4.522320000000000229e-01 9.010070000000000023e-01 5.360299999999999787e-02 2.841199999999999976e-02 -3.609100000000000086e-01 2.384830000000000005e-01 -1.080259999999999970e-01 2.069100000000000106e-02 4.291519999999999779e-01
1.259679999999999966e-01 -4.426539999999999919e-01 -6.680399999999999672e-01 5.223499999999999671e-02 -1.916500000000000148e-02 1.132350000000000023e-01 3.122199999999999975e-02 1.421620000000000106e-01 8.457599999999999840e-02 -1.846440000000000026e-01 2.114379999999999871e-01 -1.958940000000000126e-01 -2.830600000000000130e-02 1.057720000000000049e-01 6.675489999999999480e-01
1.545580000000000009e-01 -1.448500000000000065e-01 -1.408429999999999960e-01 -1.004140999999999950e+00 2.417300000000000004e-01 -2.633800000000000030e-02 2.121740000000000015e-01 3.102849999999999775e-01 -4.920200000000000268e-02 -8.510999999999999469e-03 -4.614900000000000252e-02 1.456999999999999962e-02 6.460259999999999891e-01 -3.598279999999999812e-01 2.020399999999999974e-01
1.891960000000000031e-01 -7.832759999999999723e-01 -1.147256999999999971e+00 5.280540000000000234e-01 -1.656370000000000064e-01 -1.783069999999999933e-01 3.337249999999999939e-01 7.135949999999999793e-01 1.861770000000000092e-01 5.370500000000000274e-02 1.600900000000000101e-01 6.145799999999999874e-02 -1.104694000000000065e+00 7.687599999999999989e-02 1.077288000000000023e+00
2.482199999999999962e-01 -4.372499999999999998e-02 4.524100000000000343e-02 3.064180000000000237e-01 7.459300000000000652e-02 2.687169999999999837e-01 -1.241949999999999998e-01 6.792499999999999927e-02 -1.849399999999999933e-01 -3.293079999999999896e-01 -2.961300000000000043e-02 -4.076099999999999723e-01 -1.007409999999999972e-01 -6.908799999999999664e-02 2.789260000000000073e-01
-9.339400000000000479e-02 1.947979999999999989e-01 7.889500000000000679e-02 -1.873430000000000095e-01 -1.986999999999999877e-02 -1.366690000000000127e-01 2.198650000000000049e-01 -8.498400000000000398e-02 2.180819999999999981e-01 2.328069999999999862e-01 2.935269999999999824e-01 1.076619999999999938e-01 -1.722539999999999905e-01 -3.846870000000000012e-01 -2.674059999999999770e-01
-2.856009999999999938e-01 6.582300000000000650e-02 2.570370000000000155e-01 -1.226089999999999958e-01 -1.479530000000000012e-01 -5.886799999999999672e-02 4.501669999999999838e-01 6.500629999999999464e-01 2.405670000000000031e-01 -4.292200000000000182e-02 3.682739999999999903e-01 -3.268019999999999814e-01 5.969999999999999829e-04 -9.357779999999999987e-01 -1.123600000000000015e-01
2.561229999999999896e-01 -4.415800000000000280e-02 4.599500000000000116e-02 -3.673460000000000059e-01 2.246080000000000021e-01 1.893970000000000098e-01 -3.460989999999999900e-01 -6.795780000000000154e-01 1.531889999999999918e-01 3.645490000000000119e-01 -4.429950000000000276e-01 9.207039999999999669e-01 9.232799999999999341e-02 9.415519999999999445e-01 -1.309860999999999942e+00
-2.016930000000000112e-01 4.010230000000000183e-01 4.710889999999999800e-01 -9.406590000000000229e-01 8.694999999999999604e-03 -7.314099999999999768e-02 7.412799999999999945e-02 -3.158480000000000176e-01 -1.595600000000000143e-02 3.828400000000000136e-01 -7.896959999999999535e-01 1.351226000000000038e+00 6.853240000000000443e-01 6.970600000000000129e-01 -1.733247999999999900e+00
2.636339999999999795e-01 -5.534599999999999936e-02 -3.162630000000000163e-01 -6.511240000000000361e-01 6.839900000000000146e-02 1.565410000000000135e-01 7.622000000000000303e-03 -2.949919999999999765e-01 -1.170780000000000015e-01 -1.117179999999999979e-01 4.220999999999999752e-02 3.101999999999999896e-02 4.903270000000000128e-01 2.404660000000000131e-01 2.449989999999999946e-01
-3.389579999999999815e-01 7.638100000000000445e-02 7.581379999999999786e-01 -4.484960000000000058e-01 -1.575539999999999996e-01 -8.970200000000000395e-02 6.141820000000000057e-01 1.030810999999999922e+00 2.127610000000000057e-01 -3.575300000000000006e-02 -2.577399999999999830e-02 -2.765520000000000200e-01 2.087809999999999944e-01 -9.236929999999999863e-01 -6.042570000000000441e-01
7.631200000000000483e-02 -2.433500000000000107e-01 2.063379999999999936e-01 3.513370000000000104e-01 5.019999999999999506e-04 4.120000000000000051e-02 4.923000000000000292e-02 3.838719999999999910e-01 -1.657600000000000046e-02 -1.472829999999999973e-01 1.199250000000000038e-01 -8.906220000000000248e-01 -3.295029999999999903e-01 -2.614759999999999862e-01 6.601040000000000241e-01
-2.872970000000000246e-01 1.522399999999999864e-01 3.785990000000000189e-01 4.220169999999999755e-01 1.802519999999999956e-01 -1.156080000000000024e-01 -3.798750000000000182e-01 -4.677999999999999867e-03 9.631399999999999684e-02 -1.194600000000000002e-02 1.541440000000000032e-01 -3.144159999999999733e-01 2.565450000000000230e-01 -4.818350000000000133e-01 -4.556400000000000033e-02
-2.425630000000000008e-01 1.171750000000000014e-01 5.210479999999999556e-01 -3.797349999999999892e-01 -1.670699999999999963e-02 -1.286090000000000011e-01 3.795330000000000092e-01 5.735749999999999460e-01 1.616009999999999946e-01 -1.954699999999999840e-02 2.882959999999999967e-01 -6.016869999999999719e-01 2.623949999999999894e-01 -9.623800000000000132e-01 4.720599999999999796e-02
1.321249999999999925e-01 1.027089999999999947e-01 4.097879999999999856e-01 -3.703400000000000025e-01 -1.285030000000000061e-01 1.238009999999999944e-01 -9.348999999999999672e-03 -6.879859999999999864e-01 -5.870500000000000024e-02 1.899839999999999862e-01 -3.709399999999999920e-01 2.682669999999999777e-01 5.757099999999999718e-02 1.084727999999999914e+00 -7.431790000000000340e-01
-5.368799999999999961e-02 -2.506450000000000067e-01 2.724099999999999855e-01 8.451500000000000679e-02 -8.361200000000000576e-02 1.069179999999999992e-01 2.198620000000000019e-01 5.883950000000000014e-01 1.962470000000000048e-01 -1.997539999999999871e-01 2.158150000000000068e-01 -6.349040000000000239e-01 -5.151700000000000029e-02 -4.698450000000000126e-01 5.958800000000000208e-02
-6.105700000000000016e-02 3.177789999999999782e-01 4.281670000000000198e-01 -1.356700000000000128e-01 -1.084569999999999979e-01 2.328850000000000087e-01 -4.231730000000000214e-01 -1.028513999999999928e+00 8.051800000000000623e-02 -2.503130000000000077e-01 2.470849999999999991e-01 -3.258550000000000058e-01 8.714720000000000244e-01 5.712040000000000450e-01 -4.154749999999999832e-01
-2.992489999999999872e-01 1.416139999999999899e-01 -1.996580000000000021e-01 4.762799999999999812e-01 6.391099999999999559e-02 -2.532840000000000091e-01 2.031709999999999905e-01 7.388109999999999955e-01 3.628399999999999681e-02 -7.494099999999999373e-02 4.087930000000000175e-01 -2.002319999999999933e-01 -3.056030000000000135e-01 -1.353056999999999954e+00 6.171229999999999771e-01
7.044300000000000561e-02 -1.350830000000000086e-01 -2.102360000000000062e-01 9.702979999999999938e-01 -1.330399999999999985e-02 -1.668060000000000098e-01 -6.886440000000000339e-01 -9.437689999999999690e-01 -1.629059999999999953e-01 2.862040000000000139e-01 -5.044220000000000370e-01 5.633580000000000254e-01 -6.387049999999999672e-01 1.596321000000000101e+00 -2.478899999999999854e-02
-3.063049999999999939e-01 5.107770000000000366e-01 4.949339999999999851e-01 -1.260630000000000084e-01 -2.219440000000000024e-01 7.273100000000000398e-02 -9.153799999999999437e-02 -7.424070000000000391e-01 2.505890000000000062e-01 -1.518000000000000035e-03 2.026670000000000138e-01 3.507170000000000010e-01 5.252090000000000369e-01 2.516050000000000231e-01 -1.168558999999999903e+00
-5.172000000000000208e-02 8.361000000000000376e-02 3.594649999999999790e-01 7.641449999999999632e-01 -5.853799999999999976e-02 -5.818600000000000161e-02 -4.398989999999999845e-01 -5.921530000000000404e-01 -1.186620000000000036e-01 1.120840000000000031e-01 -2.484989999999999977e-01 1.431999999999999896e-03 -3.848920000000000119e-01 8.156569999999999654e-01 -1.838470000000000104e-01