
5 atoms
2 atom types
   0.0000000000   10.0000000000 xlo xhi
   0.0000000000   10.0000000000 ylo yhi
   0.0000000000   10.0000000000 zlo zhi
   0.0000000000    0.0000000000    0.0000000000 xy xz yz

Atoms # atomic

     1      1    5.4807754332    4.0768881404    3.5395664532
     2      1    4.0728500402    4.8414280799    4.3519431310
     3      1    5.7119128690    5.6871518693    4.3567519979
     4      1    5.4421866349    4.1289422453    5.2681148551
     5      2    5.1656306756    4.7046214988    4.3614007426
