5.362783430000000351e+00 4.060527320000000273e+00 3.591814680000000148e+00 3.920279450000000221e+00 4.823458490000000154e+00 4.404411739999999575e+00 5.580957429999999775e+00 5.631350620000000085e+00 4.436354930000000252e+00 5.306254680000000334e+00 4.142610050000000044e+00 5.364349230000000190e+00 5.017064030000000230e+00 4.690158499999999897e+00 4.443016469999999885e+00
5.349022030000000427e+00 4.080837080000000228e+00 3.595447819999999961e+00 3.930241140000000133e+00 4.824790980000000395e+00 4.384473179999999637e+00 5.587770070000000366e+00 5.616060789999999692e+00 4.438695349999999706e+00 5.314851410000000165e+00 4.149531170000000380e+00 5.352988530000000189e+00 5.016089960000000403e+00 4.689045680000000438e+00 4.445142080000000107e+00
5.333328319999999678e+00 4.101439599999999963e+00 3.595196399999999848e+00 3.944657889999999778e+00 4.832837119999999764e+00 4.369779190000000035e+00 5.587357319999999739e+00 5.615639859999999928e+00 4.437175680000000177e+00 5.312795999999999630e+00 4.154857259999999997e+00 5.344786899999999896e+00 5.016405040000000426e+00 4.686231629999999981e+00 4.447213099999999919e+00
5.324673790000000295e+00 4.108990949999999920e+00 3.577104390000000134e+00 3.947853499999999904e+00 4.849135360000000006e+00 4.363512740000000001e+00 5.579667470000000407e+00 5.628534250000000405e+00 4.432736610000000077e+00 5.303241779999999572e+00 4.149517630000000068e+00 5.351991879999999924e+00 5.018311699999999931e+00 4.683598700000000115e+00 4.449027049999999761e+00
5.322213050000000223e+00 4.107015600000000433e+00 3.551297850000000089e+00 3.940763490000000147e+00 4.870827440000000230e+00 4.367123539999999693e+00 5.563304660000000013e+00 5.643581310000000073e+00 4.427720390000000172e+00 5.286969280000000104e+00 4.135810629999999932e+00 5.369071289999999941e+00 5.021853870000000164e+00 4.681834779999999974e+00 4.449880460000000149e+00
5.319585870000000050e+00 4.107384459999999571e+00 3.539696100000000012e+00 3.938700040000000069e+00 4.890948009999999790e+00 4.380120840000000015e+00 5.541386430000000196e+00 5.652327520000000050e+00 4.425094460000000396e+00 5.263663379999999670e+00 4.124195359999999866e+00 5.378513049999999573e+00 5.026044830000000019e+00 4.680359789999999798e+00 4.449195689999999814e+00
5.314191100000000390e+00 4.113810560000000116e+00 3.549359819999999832e+00 3.949755479999999874e+00 4.903377680000000183e+00 4.399103079999999721e+00 5.522314670000000092e+00 5.655029019999999740e+00 4.427369149999999642e+00 5.236993430000000060e+00 4.120855019999999591e+00 5.371751899999999580e+00 5.029410780000000081e+00 4.678834880000000140e+00 4.447173839999999601e+00
5.309626889999999655e+00 4.117971930000000391e+00 3.565374300000000218e+00 3.964850109999999983e+00 4.906732510000000325e+00 4.418350939999999838e+00 5.515116970000000229e+00 5.656490709999999922e+00 4.435864360000000062e+00 5.214947300000000396e+00 4.121905009999999869e+00 5.357819359999999698e+00 5.030983769999999744e+00 4.677997050000000101e+00 4.444677930000000110e+00
5.311097570000000267e+00 4.109183350000000345e+00 3.566755779999999820e+00 3.966908169999999956e+00 4.903903159999999595e+00 4.432051780000000107e+00 5.523551770000000083e+00 5.657476950000000393e+00 4.450235799999999742e+00 5.205533639999999629e+00 4.118383419999999795e+00 5.353426159999999712e+00 5.030772500000000313e+00 4.679188270000000038e+00 4.442583039999999706e+00
5.316834270000000195e+00 4.091924470000000369e+00 3.555609940000000080e+00 3.952169420000000155e+00 4.897529439999999568e+00 4.436597940000000406e+00 5.544601209999999725e+00 5.653334219999999632e+00 4.468171530000000224e+00 5.210928130000000102e+00 4.108941510000000186e+00 5.360720320000000427e+00 5.029311650000000355e+00 4.682315059999999640e+00 4.441028550000000408e+00
5.236078189999999744e+00 4.042902830000000058e+00 3.683862299999999923e+00 3.784364909999999860e+00 4.809129920000000169e+00 4.508524079999999934e+00 5.436510880000000157e+00 5.611565159999999608e+00 4.530842070000000277e+00 5.178566009999999942e+00 4.161642080000000021e+00 5.481125129999999679e+00 4.882833399999999990e+00 4.675524239999999665e+00 4.537581180000000103e+00
5.216236979999999690e+00 4.068952089999999799e+00 3.704185739999999782e+00 3.798896270000000186e+00 4.807763079999999967e+00 4.485937520000000234e+00 5.460236789999999729e+00 5.629518850000000185e+00 4.527984009999999948e+00 5.184074700000000036e+00 4.164236299999999780e+00 5.455500480000000429e+00 4.880825429999999798e+00 4.671726220000000040e+00 4.540165199999999679e+00
5.199324179999999629e+00 4.085973980000000338e+00 3.709185670000000101e+00 3.812676090000000073e+00 4.813621190000000105e+00 4.467284460000000124e+00 5.458609079999999558e+00 5.632113539999999752e+00 4.520166129999999782e+00 5.181879419999999570e+00 4.158600490000000427e+00 5.440163069999999657e+00 4.881408989999999726e+00 4.670055450000000441e+00 4.543262659999999897e+00
5.195434549999999874e+00 4.079891439999999925e+00 3.680443239999999783e+00 3.810545920000000031e+00 4.828318610000000177e+00 4.456558919999999979e+00 5.431824210000000264e+00 5.616078950000000347e+00 4.510225049999999847e+00 5.175825050000000260e+00 4.137748300000000157e+00 5.451086870000000140e+00 4.884669760000000416e+00 4.672417170000000120e+00 4.546506469999999744e+00
5.195107959999999636e+00 4.069478229999999641e+00 3.648669089999999837e+00 3.801161019999999890e+00 4.847003810000000357e+00 4.456359690000000207e+00 5.402285680000000312e+00 5.609288900000000133e+00 4.501030199999999759e+00 5.161812669999999770e+00 4.113424079999999705e+00 5.469931429999999928e+00 4.889138530000000316e+00 4.674319050000000253e+00 4.548397579999999607e+00
5.188681690000000124e+00 4.073553320000000255e+00 3.644489459999999958e+00 3.802112390000000008e+00 4.862189560000000021e+00 4.467144929999999903e+00 5.391675750000000100e+00 5.636433779999999949e+00 4.495252220000000243e+00 5.137156039999999813e+00 4.101919460000000406e+00 5.472583219999999748e+00 4.892554800000000093e+00 4.671372200000000419e+00 4.548125419999999863e+00
5.177222959999999929e+00 4.090771489999999844e+00 3.666363590000000006e+00 3.816414190000000151e+00 4.870129010000000314e+00 4.485952000000000162e+00 5.392184639999999973e+00 5.670086369999999931e+00 4.497101830000000078e+00 5.107813179999999953e+00 4.106428840000000413e+00 5.457944640000000014e+00 4.894730820000000371e+00 4.666036450000000002e+00 4.545806749999999674e+00
5.171274659999999912e+00 4.100698559999999659e+00 3.681719020000000064e+00 3.829880170000000028e+00 4.872516179999999864e+00 4.507072439999999958e+00 5.389499459999999686e+00 5.672978210000000132e+00 4.509291300000000113e+00 5.085523359999999826e+00 4.115089639999999882e+00 5.447923020000000172e+00 4.896187420000000401e+00 4.664006859999999755e+00 4.542589529999999876e+00
5.178227790000000219e+00 4.087558689999999828e+00 3.664939019999999825e+00 3.826762809999999959e+00 4.872687840000000215e+00 4.524390839999999692e+00 5.384190939999999870e+00 5.642399170000000019e+00 4.530273010000000156e+00 5.078842709999999983e+00 4.116133679999999906e+00 5.459825369999999900e+00 4.896859410000000246e+00 4.667542970000000402e+00 4.539815360000000410e+00
5.188771100000000303e+00 4.068140230000000024e+00 3.641289149999999974e+00 3.810425640000000058e+00 4.870631539999999760e+00 4.533673939999999902e+00 5.392681849999999777e+00 5.613512359999999646e+00 4.555406220000000062e+00 5.086292910000000056e+00 4.114032980000000173e+00 5.478573120000000074e+00 4.895992879999999658e+00 4.671911320000000423e+00 4.537372799999999984e+00
5.405670999999999893e+00 4.123093589999999864e+00 3.685229650000000134e+00 3.991220139999999805e+00 4.902461759999999558e+00 4.509102509999999953e+00 5.657768360000000385e+00 5.709123230000000326e+00 4.535613630000000285e+00 5.363968080000000249e+00 4.230226369999999569e+00 5.476724280000000000e+00 5.082503179999999787e+00 4.766741620000000346e+00 4.540451799999999594e+00
5.395047700000000113e+00 4.150942800000000155e+00 3.700914099999999873e+00 3.981749049999999901e+00 4.910154379999999819e+00 4.488712910000000278e+00 5.655129879999999609e+00 5.677704040000000063e+00 4.533674050000000122e+00 5.372583910000000351e+00 4.238995970000000391e+00 5.450997680000000400e+00 5.083688279999999615e+00 4.765660289999999577e+00 4.543168159999999567e+00
5.386740269999999775e+00 4.173321790000000142e+00 3.705259630000000026e+00 3.996108120000000152e+00 4.923029900000000403e+00 4.474181930000000307e+00 5.653877719999999663e+00 5.676076619999999906e+00 4.525906400000000218e+00 5.373895260000000285e+00 4.239196019999999621e+00 5.437133310000000108e+00 5.083175999999999917e+00 4.762822889999999809e+00 4.545838909999999622e+00
5.388155399999999595e+00 4.174698880000000223e+00 3.680135480000000126e+00 4.020157030000000020e+00 4.940728120000000168e+00 4.468755550000000021e+00 5.654843109999999839e+00 5.703602619999999845e+00 4.514939230000000414e+00 5.371136950000000354e+00 4.222057160000000309e+00 5.451236670000000117e+00 5.081190180000000112e+00 4.760352179999999933e+00 4.548141369999999739e+00
5.392250439999999756e+00 4.168648720000000196e+00 3.649021340000000002e+00 4.024560730000000142e+00 4.963811360000000228e+00 4.471854419999999664e+00 5.644758620000000171e+00 5.727694109999999839e+00 4.505558760000000440e+00 5.360153709999999627e+00 4.200973639999999953e+00 5.472732610000000442e+00 5.082245789999999985e+00 4.758672200000000352e+00 4.549477910000000236e+00
5.389184089999999649e+00 4.172385030000000050e+00 3.641093259999999887e+00 4.008740310000000306e+00 4.987390770000000195e+00 4.482101400000000346e+00 5.620592450000000184e+00 5.728346840000000384e+00 4.502305599999999686e+00 5.337791320000000006e+00 4.192328569999999921e+00 5.476424989999999937e+00 5.087736729999999596e+00 4.757052050000000420e+00 4.549248490000000089e+00
5.377505430000000253e+00 4.186233139999999686e+00 3.658629209999999965e+00 4.001483340000000055e+00 5.001174080000000188e+00 4.498021419999999715e+00 5.595192299999999896e+00 5.714556159999999885e+00 4.507469610000000237e+00 5.308872459999999904e+00 4.198064249999999831e+00 5.460848320000000200e+00 5.093886699999999657e+00 4.755409730000000224e+00 4.547316649999999960e+00
5.365098729999999705e+00 4.193522609999999595e+00 3.675215380000000032e+00 4.017172949999999965e+00 4.999663349999999618e+00 4.515737780000000257e+00 5.587817239999999686e+00 5.712615699999999741e+00 4.520896439999999572e+00 5.284020550000000149e+00 4.205158860000000054e+00 5.448078719999999819e+00 5.096319659999999807e+00 4.754491319999999632e+00 4.544385740000000062e+00
5.360751780000000188e+00 4.179219579999999823e+00 3.664768350000000119e+00 4.039421410000000101e+00 4.987241069999999610e+00 4.529891899999999971e+00 5.603925359999999856e+00 5.728162639999999861e+00 4.540964549999999988e+00 5.272206689999999973e+00 4.200870000000000104e+00 5.457662260000000209e+00 5.094463110000000405e+00 4.755786719999999690e+00 4.541591340000000088e+00
5.361691849999999704e+00 4.156069630000000181e+00 3.643309480000000100e+00 4.035913120000000021e+00 4.974574089999999948e+00 4.536418180000000078e+00 5.630128179999999816e+00 5.736459810000000381e+00 4.564029989999999870e+00 5.274109179999999952e+00 4.190906319999999852e+00 5.476148649999999840e+00 5.092328410000000360e+00 4.758928649999999649e+00 4.539364260000000151e+00
5.041729110000000347e+00 4.151430409999999682e+00 3.596885949999999887e+00 3.572881440000000186e+00 4.922964989999999652e+00 4.399808740000000107e+00 5.194517199999999946e+00 5.746085690000000135e+00 4.433938119999999650e+00 4.941122889999999934e+00 4.230677540000000292e+00 5.356902840000000054e+00 4.661164040000000064e+00 4.787362530000000227e+00 4.441274179999999738e+00
5.013483980000000173e+00 4.188526079999999929e+00 3.612784889999999915e+00 3.552385080000000084e+00 4.918937670000000040e+00 4.373454459999999600e+00 5.209443030000000086e+00 5.723954430000000038e+00 4.440165059999999997e+00 4.953984160000000081e+00 4.241643139999999867e+00 5.354689569999999676e+00 4.662918999999999592e+00 4.785525749999999690e+00 4.441815090000000410e+00
4.987705540000000326e+00 4.215081670000000003e+00 3.606756400000000085e+00 3.564198339999999909e+00 4.915389339999999940e+00 4.352630880000000424e+00 5.220976020000000162e+00 5.718808629999999837e+00 4.444251340000000106e+00 4.955108309999999960e+00 4.255985550000000117e+00 5.352596499999999757e+00 4.663023889999999838e+00 4.782825609999999728e+00 4.443902360000000051e+00
4.977714660000000180e+00 4.213876579999999983e+00 3.562952230000000053e+00 3.596297139999999892e+00 4.917011160000000380e+00 4.343227269999999862e+00 5.224598689999999657e+00 5.728969249999999569e+00 4.445236809999999927e+00 4.946343200000000273e+00 4.262413790000000091e+00 5.359010529999999939e+00 4.661593719999999941e+00 4.781402299999999883e+00 4.447748940000000317e+00
4.974541219999999875e+00 4.207245880000000327e+00 3.523469430000000013e+00 3.608058170000000064e+00 4.929654160000000118e+00 4.344948800000000055e+00 5.214087310000000031e+00 5.740356789999999876e+00 4.442894940000000403e+00 4.930754369999999831e+00 4.255815209999999738e+00 5.373393100000000366e+00 4.663054449999999740e+00 4.780501179999999906e+00 4.449911990000000372e+00
4.969346520000000211e+00 4.213481960000000193e+00 3.522905600000000081e+00 3.586476830000000060e+00 4.952832360000000378e+00 4.355838089999999774e+00 5.191210009999999819e+00 5.745301010000000375e+00 4.438849679999999687e+00 4.909586530000000337e+00 4.241388190000000336e+00 5.383271200000000256e+00 4.668986030000000120e+00 4.778835260000000140e+00 4.448562319999999737e+00
4.962905240000000440e+00 4.228712810000000211e+00 3.556139809999999901e+00 3.568316540000000092e+00 4.976669410000000404e+00 4.375664819999999899e+00 5.166504419999999875e+00 5.748934470000000019e+00 4.436278810000000128e+00 4.884988199999999559e+00 4.227269979999999983e+00 5.378190530000000358e+00 4.675174939999999779e+00 4.776444129999999788e+00 4.444758689999999568e+00
4.965161310000000050e+00 4.229373540000000098e+00 3.580949589999999905e+00 3.580636489999999839e+00 4.991513480000000058e+00 4.400489959999999812e+00 5.151043259999999790e+00 5.758154249999999585e+00 4.438541459999999717e+00 4.862322650000000301e+00 4.216815139999999573e+00 5.361057839999999963e+00 4.677137789999999740e+00 4.775254430000000383e+00 4.441849069999999955e+00
4.981446440000000031e+00 4.201996049999999983e+00 3.567564710000000083e+00 3.612674999999999859e+00 4.994926109999999753e+00 4.422500280000000394e+00 5.149426059999999694e+00 5.768291750000000384e+00 4.447294379999999769e+00 4.849057590000000140e+00 4.206784459999999726e+00 5.346844950000000374e+00 4.674317730000000282e+00 4.777264709999999859e+00 4.441591619999999629e+00
4.996915770000000201e+00 4.173732260000000416e+00 3.548675250000000059e+00 3.623051129999999898e+00 4.992656219999999756e+00 4.433942769999999811e+00 5.161094300000000246e+00 5.768332090000000356e+00 4.461570339999999746e+00 4.850468089999999677e+00 4.194423610000000302e+00 5.346009800000000034e+00 4.671036759999999788e+00 4.780869459999999904e+00 4.441096990000000133e+00
5.476624830000000443e+00 4.070802900000000335e+00 3.544773329999999945e+00 4.017634160000000065e+00 4.842471100000000028e+00 4.346197680000000396e+00 5.704197920000000366e+00 5.642451930000000004e+00 4.379290390000000421e+00 5.412262980000000390e+00 4.165709080000000064e+00 5.306481230000000160e+00 5.123352389999999978e+00 4.707639819999999808e+00 4.386863240000000275e+00
5.460519820000000024e+00 4.090262120000000223e+00 3.544835350000000052e+00 4.052995440000000116e+00 4.842516739999999764e+00 4.325978450000000031e+00 5.702775680000000236e+00 5.622871230000000331e+00 4.380750690000000169e+00 5.421883199999999903e+00 4.165631630000000030e+00 5.307688220000000179e+00 5.121044699999999672e+00 4.707663700000000340e+00 4.388343629999999607e+00
5.441010280000000421e+00 4.111277699999999591e+00 3.542894050000000128e+00 4.070459610000000339e+00 4.852795460000000283e+00 4.309600449999999583e+00 5.696427459999999776e+00 5.624123270000000119e+00 4.378150989999999965e+00 5.416870170000000151e+00 4.170197830000000216e+00 5.301304639999999679e+00 5.122165220000000296e+00 4.704568779999999784e+00 4.390655780000000341e+00
5.428217690000000317e+00 4.120168679999999917e+00 3.525335119999999822e+00 4.049871369999999970e+00 4.875150650000000141e+00 4.300015049999999839e+00 5.687630490000000094e+00 5.645830300000000079e+00 4.372632369999999824e+00 5.400428480000000420e+00 4.171552799999999728e+00 5.297676720000000117e+00 5.127078400000000258e+00 4.700041180000000374e+00 4.393729020000000318e+00
5.422801169999999615e+00 4.118615850000000300e+00 3.498853040000000192e+00 4.029516179999999892e+00 4.900693060000000045e+00 4.301482970000000350e+00 5.671002539999999925e+00 5.668525940000000318e+00 4.366702509999999648e+00 5.379069699999999621e+00 4.161860039999999650e+00 5.309111790000000219e+00 5.132419239999999938e+00 4.696976509999999827e+00 4.395397680000000307e+00
5.419110749999999754e+00 4.118360199999999693e+00 3.484814829999999919e+00 4.040613190000000188e+00 4.919099260000000307e+00 4.314893960000000028e+00 5.646300329999999867e+00 5.676392149999999859e+00 4.363666440000000257e+00 5.355486739999999912e+00 4.146075739999999676e+00 5.327430780000000254e+00 5.135835990000000351e+00 4.696165240000000018e+00 4.394201230000000180e+00
5.414582320000000060e+00 4.124202040000000125e+00 3.492722629999999828e+00 4.075143240000000056e+00 4.926729550000000124e+00 4.335776440000000065e+00 5.623820880000000244e+00 5.671418290000000084e+00 4.366221999999999603e+00 5.330890140000000166e+00 4.137023450000000047e+00 5.332091469999999944e+00 5.137250629999999596e+00 4.696265819999999813e+00 4.391214849999999892e+00
5.412255730000000042e+00 4.128902229999999562e+00 3.510417400000000132e+00 4.093346709999999611e+00 4.928172260000000193e+00 4.356625720000000257e+00 5.618263330000000444e+00 5.668094710000000092e+00 4.375581419999999611e+00 5.310247949999999939e+00 4.139429749999999686e+00 5.316948889999999928e+00 5.138093300000000418e+00 4.695887560000000072e+00 4.388503120000000202e+00
5.416853449999999626e+00 4.121149899999999811e+00 3.516231659999999870e+00 4.071040589999999959e+00 4.928382980000000302e+00 4.371169489999999769e+00 5.634904599999999597e+00 5.671949200000000246e+00 4.391212949999999893e+00 5.301318199999999869e+00 4.144253080000000367e+00 5.298657300000000347e+00 5.138903240000000316e+00 4.695858150000000286e+00 4.387058460000000437e+00
5.426597980000000376e+00 4.103154870000000010e+00 3.507529690000000144e+00 4.038700500000000027e+00 4.923841450000000286e+00 4.376232279999999975e+00 5.664506549999999585e+00 5.671139649999999754e+00 4.410410719999999785e+00 5.308966729999999856e+00 4.138656059999999748e+00 5.298762540000000243e+00 5.137639680000000375e+00 4.698358210000000312e+00 4.385788080000000200e+00
5.484493419999999730e+00 4.075346599999999597e+00 3.517101199999999928e+00 4.066387490000000327e+00 4.839001950000000107e+00 4.333259649999999574e+00 5.725143260000000289e+00 5.657299240000000395e+00 4.362588190000000310e+00 5.460577970000000114e+00 4.131262500000000060e+00 5.266916499999999779e+00 5.163207579999999908e+00 4.707264890000000257e+00 4.364464929999999576e+00
5.483224139999999913e+00 4.085998009999999958e+00 3.494083040000000029e+00 4.074744230000000300e+00 4.841146469999999979e+00 4.316713410000000195e+00 5.725612039999999681e+00 5.621604920000000227e+00 4.365041569999999815e+00 5.467803230000000347e+00 4.146330700000000036e+00 5.259444069999999805e+00 5.161967520000000142e+00 4.707921719999999866e+00 4.368207139999999988e+00
5.473626269999999572e+00 4.113633560000000244e+00 3.486738710000000019e+00 4.088136620000000221e+00 4.849846880000000304e+00 4.306001850000000353e+00 5.730563820000000419e+00 5.617286049999999697e+00 4.363018809999999803e+00 5.464534640000000110e+00 4.160842279999999782e+00 5.256828790000000140e+00 5.161508170000000284e+00 4.704017119999999608e+00 4.370113629999999638e+00
5.461377389999999998e+00 4.145573640000000282e+00 3.488059629999999967e+00 4.091502209999999806e+00 4.866889549999999787e+00 4.303166019999999925e+00 5.737905300000000430e+00 5.643305909999999592e+00 4.357622749999999989e+00 5.454762490000000241e+00 4.162704699999999924e+00 5.270277319999999932e+00 5.162457980000000113e+00 4.697567560000000420e+00 4.369568519999999623e+00
5.456400539999999744e+00 4.161362239999999879e+00 3.476648069999999979e+00 4.084977789999999942e+00 4.890592810000000235e+00 4.309150419999999926e+00 5.729800929999999681e+00 5.665552189999999655e+00 4.352410719999999955e+00 5.439096509999999718e+00 4.154260309999999734e+00 5.291474309999999903e+00 5.165418569999999931e+00 4.693096289999999726e+00 4.368687379999999898e+00
5.459751619999999583e+00 4.156167710000000071e+00 3.451315269999999824e+00 4.083664259999999935e+00 4.914333639999999725e+00 4.322921309999999906e+00 5.701900720000000256e+00 5.664927999999999741e+00 4.351017220000000130e+00 5.416891610000000412e+00 4.145567589999999747e+00 5.301168699999999845e+00 5.169453279999999928e+00 4.692322769999999643e+00 4.368966920000000087e+00
5.461952359999999729e+00 4.144481569999999948e+00 3.438188970000000122e+00 4.095704809999999974e+00 4.930750180000000427e+00 4.340430729999999571e+00 5.669513170000000102e+00 5.652537090000000042e+00 4.355351839999999974e+00 5.391836539999999900e+00 4.140830030000000050e+00 5.291971590000000170e+00 5.173079949999999982e+00 4.693364510000000323e+00 4.369013400000000047e+00
5.456515229999999939e+00 4.138112259999999765e+00 3.452981649999999902e+00 4.111622239999999984e+00 4.936547509999999583e+00 4.356023569999999623e+00 5.656438709999999759e+00 5.656596669999999882e+00 4.365497799999999984e+00 5.371695070000000349e+00 4.135095090000000084e+00 5.274799510000000247e+00 5.174989990000000262e+00 4.693555459999999790e+00 4.367059949999999802e+00
5.446484599999999787e+00 4.134592890000000409e+00 3.482247000000000092e+00 4.114083019999999813e+00 4.933453560000000238e+00 4.365057799999999766e+00 5.669088630000000073e+00 5.678615009999999685e+00 4.380685279999999793e+00 5.363565170000000215e+00 4.121472790000000330e+00 5.266447959999999817e+00 5.175249169999999843e+00 4.693409599999999848e+00 4.363280040000000248e+00
5.441494310000000389e+00 4.120948689999999637e+00 3.493981569999999870e+00 4.099864339999999885e+00 4.924167810000000145e+00 4.365724400000000394e+00 5.692659940000000418e+00 5.687738119999999675e+00 4.398480759999999989e+00 5.368240890000000043e+00 4.103408149999999921e+00 5.268048030000000104e+00 5.174495170000000144e+00 4.696089200000000297e+00 4.360620329999999711e+00
5.446639939999999847e+00 3.956561289999999786e+00 3.512768889999999811e+00 3.973634749999999993e+00 4.698903780000000197e+00 4.320591979999999666e+00 5.643227350000000087e+00 5.509960740000000357e+00 4.349373029999999751e+00 5.401705100000000037e+00 4.014416040000000407e+00 5.266114919999999699e+00 5.084168739999999964e+00 4.572394270000000205e+00 4.362052399999999608e+00
5.430573599999999779e+00 3.968580339999999929e+00 3.502790960000000009e+00 4.018413690000000038e+00 4.693578409999999757e+00 4.304277810000000315e+00 5.656396550000000190e+00 5.512919079999999639e+00 4.354948010000000203e+00 5.404162590000000321e+00 4.022174389999999988e+00 5.263306359999999628e+00 5.080448500000000145e+00 4.570933160000000051e+00 4.364026700000000147e+00
5.407362619999999787e+00 3.987790990000000146e+00 3.497984510000000213e+00 4.034677259999999599e+00 4.698298239999999737e+00 4.292477360000000353e+00 5.652348230000000306e+00 5.515189630000000065e+00 4.358095160000000412e+00 5.392770930000000185e+00 4.032207360000000129e+00 5.260313929999999694e+00 5.082328279999999587e+00 4.567892679999999928e+00 4.365408089999999852e+00
5.387645440000000008e+00 4.002457340000000308e+00 3.487949720000000031e+00 4.002410000000000245e+00 4.716338219999999914e+00 4.287204299999999968e+00 5.631912500000000321e+00 5.514848180000000433e+00 4.358578350000000157e+00 5.373186910000000260e+00 4.033966409999999669e+00 5.268117229999999651e+00 5.090050930000000307e+00 4.565029430000000055e+00 4.365999239999999837e+00
5.377365120000000331e+00 4.004920710000000383e+00 3.467496160000000049e+00 3.977115599999999862e+00 4.738353639999999700e+00 4.292753270000000398e+00 5.606265549999999820e+00 5.522281539999999822e+00 4.357449710000000032e+00 5.349474070000000303e+00 4.024190710000000060e+00 5.287292419999999993e+00 5.097182039999999859e+00 4.563171889999999564e+00 4.365739610000000326e+00
5.374178190000000299e+00 4.000706179999999890e+00 3.449666029999999939e+00 3.993803010000000153e+00 4.754863130000000382e+00 4.308886199999999889e+00 5.585875960000000084e+00 5.542458739999999828e+00 4.356728890000000298e+00 5.322807000000000066e+00 4.011443640000000421e+00 5.301333070000000092e+00 5.100003990000000265e+00 4.561516110000000346e+00 4.364770929999999716e+00
5.374102709999999838e+00 3.998835310000000032e+00 3.449584499999999831e+00 4.038046930000000145e+00 4.763351349999999762e+00 4.330020629999999926e+00 5.572797040000000202e+00 5.561467399999999728e+00 4.358557809999999755e+00 5.297092189999999867e+00 4.004467019999999877e+00 5.296835200000000299e+00 5.099561500000000080e+00 4.559950030000000432e+00 4.363236859999999773e+00
5.376389030000000346e+00 4.000647790000000370e+00 3.466307660000000013e+00 4.057077399999999834e+00 4.769660700000000197e+00 4.348294649999999706e+00 5.566856989999999783e+00 5.562524940000000306e+00 4.364341549999999792e+00 5.280144469999999757e+00 4.002555759999999907e+00 5.278719409999999890e+00 5.099705389999999561e+00 4.559338499999999961e+00 4.361344640000000439e+00
5.383231399999999667e+00 3.998709219999999842e+00 3.482265780000000088e+00 4.025282090000000146e+00 4.777242860000000313e+00 4.358260819999999924e+00 5.571602709999999625e+00 5.545535890000000023e+00 4.374300550000000065e+00 5.279179599999999972e+00 3.997241170000000121e+00 5.265475000000000350e+00 5.101497929999999847e+00 4.560734530000000397e+00 4.359455269999999771e+00
5.395019940000000069e+00 3.987408970000000163e+00 3.482480620000000027e+00 3.988710250000000013e+00 4.777611079999999788e+00 4.358059790000000433e+00 5.592861390000000377e+00 5.527407089999999634e+00 4.387503539999999980e+00 5.294382820000000045e+00 3.984890800000000066e+00 5.266462800000000222e+00 5.100536729999999963e+00 4.564207269999999816e+00 4.358273579999999647e+00
5.332157269999999727e+00 3.964259030000000017e+00 3.678546079999999829e+00 3.849567870000000003e+00 4.712709470000000067e+00 4.503445499999999768e+00 5.526238580000000233e+00 5.505779109999999754e+00 4.540690470000000367e+00 5.248728449999999768e+00 4.049030300000000082e+00 5.477229620000000132e+00 4.957231450000000095e+00 4.575595329999999628e+00 4.541301920000000436e+00
5.304985379999999751e+00 3.986474079999999809e+00 3.701739320000000166e+00 3.889926399999999784e+00 4.708981500000000153e+00 4.480525659999999633e+00 5.541176880000000082e+00 5.519642890000000079e+00 4.542738299999999896e+00 5.254369879999999604e+00 4.050265020000000327e+00 5.455116799999999877e+00 4.954398730000000306e+00 4.572767110000000024e+00 4.542974019999999946e+00
5.279565999999999981e+00 3.997817060000000033e+00 3.709380770000000105e+00 3.907713289999999784e+00 4.715483289999999883e+00 4.460322149999999652e+00 5.532513609999999638e+00 5.524974979999999647e+00 4.541202919999999921e+00 5.250727649999999969e+00 4.045196559999999941e+00 5.439403959999999927e+00 4.956075789999999870e+00 4.571231590000000011e+00 4.545496430000000032e+00
5.269340589999999658e+00 3.984413780000000127e+00 3.680157449999999830e+00 3.881965940000000170e+00 4.734461020000000353e+00 4.446864749999999589e+00 5.503259240000000219e+00 5.518919470000000160e+00 4.536840279999999836e+00 5.241480759999999961e+00 4.026443310000000331e+00 5.446466909999999828e+00 4.962332270000000101e+00 4.572822989999999699e+00 4.548883209999999622e+00
5.265280470000000435e+00 3.968096430000000119e+00 3.646353190000000133e+00 3.858119059999999934e+00 4.755418650000000191e+00 4.446025999999999812e+00 5.473678660000000029e+00 5.522416469999999578e+00 4.531251169999999995e+00 5.224495890000000031e+00 4.002205690000000260e+00 5.465039700000000167e+00 4.968587160000000225e+00 4.574142329999999923e+00 4.550740910000000028e+00
5.257819320000000296e+00 3.970901430000000065e+00 3.641430989999999923e+00 3.869863650000000099e+00 4.768171530000000047e+00 4.459618680000000168e+00 5.460048969999999890e+00 5.548987200000000009e+00 4.526884790000000436e+00 5.197809160000000261e+00 3.988735890000000062e+00 5.471923379999999781e+00 4.971611189999999958e+00 4.571696560000000353e+00 4.549847800000000220e+00
5.248238979999999998e+00 3.992132869999999834e+00 3.664823129999999818e+00 3.907386970000000126e+00 4.770910739999999706e+00 4.483076529999999948e+00 5.457168460000000110e+00 5.573867500000000419e+00 4.527126970000000306e+00 5.166852569999999645e+00 3.992323320000000120e+00 5.460801730000000020e+00 4.972099629999999770e+00 4.567248280000000271e+00 4.546880930000000376e+00
5.247221490000000266e+00 4.008995699999999829e+00 3.682146640000000026e+00 3.926269969999999887e+00 4.770887700000000287e+00 4.507810980000000356e+00 5.456173800000000185e+00 5.569551380000000051e+00 4.534434690000000323e+00 5.143000090000000135e+00 4.003733249999999799e+00 5.448136159999999784e+00 4.972671519999999568e+00 4.565187769999999645e+00 4.543861190000000327e+00
5.262029120000000226e+00 4.001592139999999631e+00 3.663726930000000159e+00 3.900372250000000207e+00 4.774006230000000350e+00 4.526335170000000296e+00 5.458985809999999717e+00 5.539000920000000328e+00 4.548847780000000007e+00 5.136209609999999870e+00 4.008484189999999892e+00 5.454565709999999790e+00 4.973914299999999677e+00 4.567657429999999685e+00 4.542173299999999969e+00
5.280652390000000196e+00 3.985592969999999902e+00 3.635988349999999869e+00 3.865463769999999855e+00 4.774814089999999567e+00 4.534633829999999755e+00 5.477917070000000166e+00 5.514888789999999652e+00 4.568213530000000411e+00 5.146823450000000300e+00 4.005738479999999768e+00 5.473856549999999821e+00 4.972773189999999843e+00 4.571127309999999611e+00 4.540639409999999820e+00