-2.197362801167991506e+02
-2.197380086311865171e+02
-2.197297612912289537e+02
-2.197427004915241753e+02
-2.197501718439879710e+02
-2.197425735421797413e+02
-2.197443957018790570e+02
-2.197299478389816159e+02
-2.197302819514353587e+02
-2.197450551783215360e+02
-2.197279755050079473e+02
-2.197279009376085526e+02
-2.197040552013866943e+02
-2.197453398667094291e+02
-2.197184387474190999e+02
-2.197297666437112866e+02
-2.197325469929965607e+02
-2.197034389393685672e+02
-2.197374844144501083e+02
-2.197176963306294795e+02
-2.197323767231033571e+02
-2.197254091053551974e+02
-2.197121167500684749e+02
-2.197407682508273012e+02
-2.197249187940231820e+02
-2.197313314107780400e+02
-2.197328285575157736e+02
-2.197134876223045410e+02
-2.197321764417571046e+02
-2.197252188133138588e+02
-2.197330756832871543e+02
-2.197265285388129712e+02
-2.197103867009581677e+02
-2.197264785188174869e+02
-2.197065397545905228e+02
-2.197332419667102954e+02
-2.197326164228836376e+02
-2.197122988269881887e+02
-2.197241447630290452e+02
-2.196990818744908722e+02
-2.197240932273585656e+02
-2.197250445351814108e+02
-2.197175139625478266e+02
-2.197430910866809199e+02
-2.197342798612079378e+02
-2.197312941257177670e+02
-2.197294962685197675e+02
-2.197111577604674153e+02
-2.197255588306414325e+02
-2.197337395897455110e+02
-2.197346852947410980e+02
-2.197221801053913168e+02
-2.197254116224096947e+02
-2.197357198640056879e+02
-2.197305042685733838e+02
-2.197398515912800292e+02
-2.197273868299072035e+02
-2.197223599536973495e+02
-2.197262762809715468e+02
-2.197264674492199674e+02
-2.197191733545369061e+02
-2.197195774846440202e+02
-2.197120551080840869e+02
-2.197428871698916168e+02
-2.197284402866045241e+02
-2.197314398590915800e+02
-2.197238859254711087e+02
-2.197012910973072053e+02
-2.197228537290406223e+02
-2.197250863699877925e+02
-2.197146873185077141e+02
-2.197210303339437019e+02
-2.196908959642687762e+02
-2.197447713389292403e+02
-2.197081225383251706e+02
-2.197168331550889206e+02
-2.197273413161195776e+02
-2.196859018560267316e+02
-2.197289133023707279e+02
-2.197107061519095907e+02
-2.197398582172559145e+02
-2.197177942372466646e+02
-2.197231716779227213e+02
-2.197403303840264357e+02
-2.197227929033981866e+02
-2.197454885225876637e+02
-2.197213269518094023e+02
-2.197191340721598749e+02
-2.197381592816603302e+02
-2.197172029552937715e+02
-2.197189522047679873e+02
-2.197249322772718756e+02
-2.196901136038650861e+02
-2.197437308158103804e+02
-2.197162741757889819e+02
-2.197154089675568684e+02
-2.197396376579743844e+02
-2.196863746214480670e+02
-2.197224776892616944e+02
-2.197231990634756755e+02
-2.197147668274973853e+02
-2.197179326806864594e+02
-2.197162945652910082e+02
-2.197379587935074312e+02
-2.197225600200735300e+02
-2.197271651712850655e+02
-2.197180115610927658e+02
-2.197027305068964154e+02
-2.197193058876605960e+02
-2.197191606168805720e+02
-2.197204951020325439e+02
-2.197257062266318144e+02
-2.197039660840516717e+02
-2.197411967569064757e+02
-2.197226986675988201e+02
-2.197206888662485085e+02
-2.197339162026160864e+02
-2.196989830753397541e+02
-2.197228808207104294e+02
-2.197273330084791496e+02
-2.197374365904146032e+02
-2.197309659371858004e+02
-2.197306430984150438e+02
-2.197404269355159272e+02
-2.197472378727439946e+02
-2.197475256115299089e+02
-2.197385234300574268e+02
-2.197292235340998445e+02
-2.197266161023770223e+02
-2.197386724451260989e+02
-2.197157646804199373e+02
-2.197241502515684033e+02
-2.196923951382558187e+02
-2.197362491311779706e+02
-2.197108536186496224e+02
-2.197124520707083946e+02
-2.197382101207189464e+02
-2.196882082153776707e+02
-2.197151984900989987e+02
-2.197168940569232802e+02
-2.197326834799366964e+02
-2.197308579868408174e+02
-2.197358641660598835e+02
-2.197437342226776309e+02
-2.197517133534711604e+02
-2.197427787025300461e+02
-2.197338580926713689e+02
-2.197302196672619345e+02
-2.197308069872349847e+02
-2.197469722785954502e+02
-2.197240453679482641e+02
-2.197204119548786707e+02
-2.197100270614900239e+02
-2.197358896386514573e+02
-2.197192655522024154e+02
-2.197272134116550149e+02
-2.197286888872337727e+02
-2.197071978514149464e+02
-2.197207401189203892e+02
-2.197179814163038714e+02
-2.197238362809929413e+02
-2.197294104519275777e+02
-2.197126092165433988e+02
-2.197409947993379831e+02
-2.197272129300132519e+02
-2.197208259164646336e+02
-2.197345552623450828e+02
-2.197089077559258499e+02
-2.197281378972008667e+02
-2.197338358963323799e+02
-2.197257203058101709e+02
-2.197278032350768342e+02
-2.197160677637142783e+02
-2.197413787249805921e+02
-2.197297723227304971e+02
-2.197284056682614448e+02
-2.197324701806566623e+02
-2.197135995808886832e+02
-2.197295298745987679e+02
-2.197298726130663340e+02
-2.197411244779858066e+02
-2.197313195765401872e+02
-2.197329038106424548e+02
-2.197397981508115663e+02
-2.197450994730384366e+02
-2.197478544857891620e+02
-2.197378900085304849e+02
-2.197340260577589959e+02
-2.197314828340556403e+02
-2.197377703001396014e+02
-2.197210133404244061e+02
-2.197204853766781980e+02
-2.196794275755183605e+02
-2.197426138558688251e+02
-2.197069922012594247e+02
-2.197104688576170304e+02
-2.197419620149452726e+02
-2.196776767205715828e+02
-2.197219660333074955e+02
-2.197172221828690226e+02
