-2.791152199999999972e-01 3.640317599999999820e-01 2.688861900000000249e-01 4.123980800000000002e-01 1.084771399999999997e-01 3.129670000000000195e-03 -2.751797999999999744e-01 9.599004999999999344e-02 -8.799189999999999789e-02 -2.706138399999999944e-01 2.032329900000000023e-01 -2.269027499999999864e-01 4.125661600000000151e-01 -7.714972900000000022e-01 4.296925000000000050e-02
-5.068327999999999722e-02 7.949009999999999410e-03 -1.014254299999999970e-01 1.165300300000000067e-01 1.754047400000000034e-01 1.367117999999999944e-01 -1.886530200000000046e-01 3.882037799999999983e-01 -1.008052400000000043e-01 -2.781457600000000197e-01 -4.156561000000000283e-02 8.235815000000000496e-02 4.011263500000000204e-01 -5.297783099999999745e-01 -1.661620999999999931e-02
1.836573300000000075e-01 -3.406396199999999763e-01 -4.660653799999999736e-01 -2.929240100000000124e-01 2.156945000000000112e-01 2.199409800000000081e-01 -1.901105299999999998e-01 3.478387000000000007e-01 -7.628783000000000092e-02 -1.959270499999999915e-01 -2.785486300000000193e-01 4.023557999999999857e-01 4.955049000000000259e-01 5.588905000000000262e-02 -7.966128000000000098e-02
1.616766599999999998e-01 -2.487609899999999874e-01 -2.017991299999999932e-01 -2.686510799999999866e-01 1.411473199999999928e-01 2.579374799999999968e-01 -2.266831300000000105e-01 5.642632000000000203e-02 -1.514273000000000008e-02 -1.756468099999999866e-01 -2.186655600000000088e-01 2.580627200000000232e-01 5.094536499999999801e-01 2.700483599999999873e-01 -2.986896099999999943e-01
-4.384129999999999971e-03 6.121031999999999862e-02 3.707003300000000223e-01 1.312076500000000090e-01 -4.073311000000000293e-02 2.452631700000000026e-01 -1.453697100000000131e-01 -1.643792000000000031e-01 6.236890999999999963e-02 -1.839789199999999902e-01 5.444119000000000042e-02 -1.992711899999999869e-01 2.025891499999999956e-01 8.963361999999999719e-02 -4.786689100000000030e-01
-7.233889999999999765e-02 1.582425399999999871e-01 5.553603099999999682e-01 3.426828599999999780e-01 -2.006169299999999989e-01 1.565407900000000130e-01 7.403634000000000603e-02 -1.577807699999999869e-01 1.279834099999999919e-01 -8.822579999999999312e-02 2.160001199999999899e-01 -4.231396000000000046e-01 -2.560831100000000027e-01 -1.579969000000000165e-02 -4.163480999999999987e-01
2.161775000000000155e-02 -5.906779000000000196e-02 1.660483500000000112e-01 1.056819799999999948e-01 -2.368844700000000136e-01 7.219729999999999724e-03 3.099118399999999940e-01 -3.234824000000000033e-02 1.625364900000000057e-01 1.203967999999999983e-01 1.146419199999999944e-01 -1.874433799999999928e-01 -5.575378399999999512e-01 2.136139699999999864e-01 -1.479236399999999951e-01
1.575861199999999962e-01 -3.382387600000000272e-01 -3.820313100000000128e-01 -3.403397899999999754e-01 -1.615038500000000043e-01 -1.446241799999999911e-01 4.082719399999999998e-01 -1.239900000000000030e-02 1.536340499999999942e-01 3.296806700000000090e-01 -1.194107999999999975e-01 2.489969800000000066e-01 -5.551507500000000261e-01 6.314782899999999977e-01 1.243950800000000051e-01
1.114654100000000009e-01 -2.214042099999999902e-01 -3.272387199999999829e-01 -4.387638799999999950e-01 -9.263366000000000655e-02 -2.389522000000000035e-01 3.296645200000000164e-01 -1.339730399999999877e-01 9.332366000000000272e-02 3.867044000000000037e-01 -1.547122700000000128e-01 3.052517299999999989e-01 -3.890197000000000238e-01 6.027343600000000245e-01 1.678512699999999969e-01
-6.742162000000000155e-02 1.902496499999999924e-01 1.897761400000000098e-01 -2.727421000000000012e-02 -8.104455000000000686e-02 -2.517181499999999739e-01 1.561390199999999895e-01 -2.309998799999999908e-01 -4.273319999999999723e-03 2.631315399999999971e-01 6.398070999999999620e-02 -9.556043000000000176e-02 -3.245859500000000120e-01 5.791315999999999825e-02 1.619111900000000104e-01
-3.523395500000000014e-01 4.131928000000000267e-01 4.768593199999999754e-01 4.548989199999999844e-01 7.266279999999999961e-02 -4.203897999999999663e-02 -1.225660199999999977e-01 4.120220900000000075e-01 -1.697514199999999862e-01 -3.061318599999999779e-01 1.078110600000000002e-01 -4.093583700000000269e-01 3.261517600000000128e-01 -1.006197910000000029e+00 1.451305900000000038e-01
7.620544999999999403e-02 -2.354403800000000047e-01 -4.000042400000000109e-01 -1.941640000000000033e-02 1.887222400000000133e-01 1.024208100000000010e-01 -6.619777300000000420e-01 -4.009666000000000063e-01 -1.296113999999999877e-01 -2.011740300000000037e-01 -2.149605300000000108e-01 2.683589200000000008e-01 8.063663300000000200e-01 6.615223700000000262e-01 1.602885199999999899e-01
3.399616100000000252e-01 -6.033201299999999545e-01 -8.814020700000000375e-01 -4.154228699999999996e-01 2.310031600000000129e-01 2.068184399999999923e-01 -6.572230900000000098e-01 -4.866278900000000074e-01 -5.558252999999999805e-02 -1.008468899999999946e-01 -3.975928599999999924e-01 6.858123900000000495e-01 8.335010699999999551e-01 1.254989679999999996e+00 4.611044000000000254e-02
9.302161999999999931e-02 -1.132241199999999975e-01 -7.962914000000000103e-02 -1.895525600000000088e-01 1.043950800000000012e-01 2.748267300000000191e-01 -7.233599000000000279e-02 2.412628599999999957e-01 1.934558999999999931e-02 -2.079832100000000017e-01 -9.101375999999999911e-02 2.070831499999999936e-01 3.766210999999999864e-01 -1.427266799999999947e-01 -4.205079099999999848e-01
-1.593512199999999879e-01 3.783329599999999959e-01 7.203967999999999483e-01 2.698816399999999782e-01 -9.113838000000000494e-02 2.869525600000000232e-01 4.940434499999999951e-01 8.864064000000000387e-01 8.912391999999999537e-02 -2.782781500000000019e-01 3.345316300000000242e-01 -4.227335700000000029e-01 -3.268373500000000265e-01 -1.509033550000000057e+00 -6.730765600000000459e-01
-1.315635800000000133e-01 3.434080899999999992e-01 6.805599700000000141e-01 3.487783300000000253e-01 -1.890728399999999920e-01 2.097226600000000052e-01 2.903066400000000047e-01 1.704139799999999927e-01 1.991748399999999919e-01 -1.227927199999999941e-01 4.181736400000000131e-01 -4.516506000000000132e-01 -3.854700200000000243e-01 -7.441786400000000024e-01 -6.371090299999999651e-01
1.437805699999999964e-01 -1.902116699999999994e-01 -1.699635300000000016e-01 -2.161949999999999983e-02 -1.449270900000000084e-01 6.071746000000000087e-02 -8.343372999999999762e-02 -8.030810900000000530e-01 2.701442299999999852e-01 1.838105299999999998e-01 1.085187799999999952e-01 1.203921800000000014e-01 -2.235600500000000102e-01 1.028227709999999906e+00 -2.801328799999999730e-01
3.369451600000000213e-01 -6.024469599999999758e-01 -8.392688299999999657e-01 -4.330171899999999963e-01 -5.784170999999999757e-02 -9.900546999999999820e-02 -6.857232000000000605e-02 -8.743435699999999589e-01 2.298706899999999886e-01 4.074349299999999729e-01 -1.988482699999999936e-01 5.725869099999999490e-01 -2.439833100000000088e-01 1.732201810000000064e+00 1.373415900000000134e-01
9.389419000000000237e-02 -1.642189400000000077e-01 -1.797202300000000086e-01 -3.453990100000000063e-01 -5.820008000000000126e-02 -2.096516499999999950e-01 3.604140299999999963e-01 4.374618999999999730e-02 1.087697400000000036e-01 3.690511000000000208e-01 -8.213670000000000693e-02 1.790075000000000138e-01 -4.788096299999999861e-01 2.597106699999999768e-01 1.027298400000000028e-01
-1.936477899999999863e-01 4.089335599999999737e-01 6.482692500000000191e-01 1.396932999999999925e-01 -9.117812999999999612e-02 -2.496054500000000065e-01 6.894049300000000269e-01 8.847679299999999802e-01 -1.881017000000000106e-02 1.911830099999999866e-01 1.523802700000000121e-01 -4.516148300000000226e-01 -8.270949600000000457e-01 -1.355538209999999966e+00 7.245680000000000176e-02
-2.120140000000000080e-01 4.545094800000000212e-01 4.208563900000000246e-01 2.334303699999999981e-01 1.931233800000000111e-01 -4.032459999999999864e-03 -3.925793499999999936e-01 -9.785191999999999501e-02 -1.603778200000000043e-01 -2.586940400000000140e-01 2.026575800000000038e-01 -4.065049499999999760e-01 6.299103000000000341e-01 -7.522774300000000247e-01 1.500169399999999875e-01
6.034053999999999807e-02 -1.424879500000000021e-01 -2.959811500000000262e-01 6.223913100000000309e-01 1.355114199999999935e-01 1.527449499999999905e-01 3.617673999999999890e-02 7.778040299999999796e-01 -1.522796999999999901e-01 -1.906917499999999932e-01 -2.237379499999999910e-01 3.095022900000000132e-01 -5.281744099999999831e-01 -5.468432600000000532e-01 -1.371813000000000025e-02
2.538657999999999748e-01 -5.483141799999999844e-01 -7.697934400000000510e-01 2.533485799999999899e-01 1.261785900000000071e-01 2.376299199999999945e-01 5.791194999999999676e-02 7.615716900000000233e-01 -8.369927000000000616e-02 -1.062950399999999934e-01 -4.529539399999999993e-01 7.304148700000000494e-01 -4.587882799999999928e-01 1.136437799999999998e-01 -1.141681300000000066e-01
7.003057999999999506e-02 -1.940071800000000013e-01 -1.568554400000000126e-01 -5.128474499999999825e-01 1.409407199999999916e-01 2.226304000000000061e-01 -2.886497499999999827e-01 -8.931181000000000536e-02 4.128691999999999779e-02 -2.149073800000000090e-01 -1.033050199999999974e-01 1.933320299999999881e-01 9.464193199999999528e-01 2.457086900000000074e-01 -3.002776600000000018e-01
-1.870215799999999928e-01 2.555687600000000059e-01 6.052414000000000405e-01 -5.282640400000000458e-01 1.330725999999999958e-02 1.867815999999999921e-01 -3.680173800000000051e-01 -6.119480699999999551e-01 1.599281600000000136e-01 -2.974303400000000153e-01 3.246235399999999882e-01 -4.647742899999999788e-01 1.380875789999999936e+00 1.832523000000000138e-02 -4.872335500000000152e-01
-2.250316699999999892e-01 2.642146899999999743e-01 6.650978199999999507e-01 2.234722600000000059e-01 -2.555577700000000174e-01 1.483550899999999950e-01 -3.259828000000000031e-02 -3.773065400000000236e-01 2.198393700000000062e-01 -1.716149299999999989e-01 3.755502099999999954e-01 -5.033248299999999453e-01 2.061291100000000043e-01 -7.190610000000000057e-03 -5.299936600000000331e-01
-1.919465000000000060e-02 -1.711286099999999866e-01 -2.454819999999999919e-02 5.993429399999999907e-01 -3.993311999999999973e-01 4.716652000000000344e-02 4.705020799999999892e-01 3.093655299999999997e-01 2.159337799999999918e-01 1.058096500000000051e-01 3.558635999999999744e-02 7.309712000000000154e-02 -1.155973769999999901e+00 2.250527099999999892e-01 -3.113479599999999792e-01
2.103646399999999916e-01 -5.639686900000000502e-01 -7.059606999999999966e-01 1.715776400000000035e-01 -2.850738400000000228e-01 -9.279321999999999571e-02 6.133587900000000426e-01 4.568079700000000076e-01 1.736975400000000114e-01 3.402298699999999898e-01 -2.972726299999999822e-01 5.837570199999999598e-01 -1.334865079999999926e+00 6.889817799999999881e-01 4.196939999999999699e-02
1.380516800000000099e-01 -2.313299099999999997e-01 -2.878282200000000235e-01 -6.725293700000000152e-01 -6.579289999999999791e-03 -1.990550600000000059e-01 2.639542500000000014e-01 -1.891574500000000048e-01 7.860335999999999712e-02 3.581454199999999921e-01 -1.483124299999999951e-01 2.327204599999999901e-01 -8.691611999999999949e-02 5.750446399999999958e-01 1.761022200000000038e-01
-5.139185999999999754e-02 3.514944199999999741e-01 4.976991000000000054e-01 -6.912841400000000469e-01 1.210050099999999962e-01 -2.237126899999999918e-01 -1.111232800000000048e-01 -6.609070700000000409e-01 -6.207080999999999710e-02 2.260949600000000115e-01 1.839037199999999928e-01 -4.393178899999999887e-01 6.282170900000000335e-01 4.420490000000000010e-03 2.275830000000000075e-01
-4.828904099999999922e-01 5.763172600000000534e-01 3.874579400000000007e-01 1.376479800000000031e-01 -7.959710000000000049e-03 -9.450150000000000217e-02 -1.353344599999999898e-01 9.907209999999999628e-03 -2.262364000000000042e-02 -2.118207300000000126e-01 2.876377600000000201e-01 -1.039626500000000037e-01 6.917591600000000396e-01 -8.656361599999999878e-01 -1.662502200000000041e-01
6.401613000000000442e-02 -2.747912900000000214e-01 -5.725888500000000381e-01 8.437418399999999652e-01 1.245301000000000047e-02 1.440880099999999886e-01 -8.841044000000000680e-02 4.433929300000000184e-01 -5.582911000000000123e-02 -3.064255900000000254e-01 8.837955000000000116e-02 3.106760000000000077e-03 -5.133397400000000443e-01 -2.690882900000000078e-01 4.814651600000000031e-01
4.120440499999999950e-01 -7.248153699999999588e-01 -9.869344399999999684e-01 5.301126099999999841e-01 1.350105000000000055e-01 2.980202699999999760e-01 -2.064742400000000033e-01 3.997841899999999837e-01 -8.094347999999999821e-02 -2.583275800000000011e-01 -2.065329800000000049e-01 2.222061399999999964e-01 -4.778362299999999729e-01 3.969863699999999773e-01 5.480387899999999979e-01
1.779471199999999864e-01 -1.417557200000000017e-01 1.122318199999999960e-01 -5.308168399999999565e-01 2.879395699999999780e-01 2.904893800000000192e-01 -3.691807100000000230e-01 3.220488999999999991e-02 -8.690784000000000009e-02 -1.783936799999999989e-01 -3.402134900000000073e-01 2.082652899999999918e-01 8.996620699999999804e-01 1.622959700000000116e-01 -5.233848800000000523e-01
-5.285100000000000214e-02 3.360294500000000073e-01 1.016116959999999958e+00 -8.708527999999999825e-01 2.754101099999999858e-01 2.395229299999999950e-01 -3.232036099999999745e-01 -1.681526499999999869e-01 -4.453429999999999889e-02 -1.459798200000000101e-01 -2.046078000000000063e-01 -1.174572499999999992e-01 1.392012060000000107e+00 -2.382336499999999913e-01 -1.093097999999999903e+00
-3.264382999999999868e-02 2.350721299999999903e-01 8.829257700000000542e-01 8.904455999999999483e-02 1.756187000000000026e-02 2.336446600000000040e-01 -4.810754999999999892e-02 -3.416741000000000222e-02 3.845557000000000142e-02 -8.993777000000000021e-02 7.848809999999999468e-03 -3.906313000000000146e-01 8.117077999999999793e-02 -2.260563200000000050e-01 -7.641493900000000394e-01
2.271105499999999944e-01 -3.803965799999999842e-01 -2.195735400000000115e-01 7.959863000000000355e-01 -2.345691400000000093e-01 1.308794699999999978e-01 2.411250600000000022e-01 1.459916800000000126e-01 1.262311399999999917e-01 5.011809999999999876e-02 9.548724999999999574e-02 -3.149227900000000080e-01 -1.314428090000000049e+00 3.735636800000000091e-01 2.776164199999999749e-01
3.665281300000000075e-01 -7.324576799999999999e-01 -9.974154100000000023e-01 5.153137500000000149e-01 -2.984072700000000022e-01 -7.315573000000000214e-02 3.614222799999999847e-01 2.411512000000000031e-02 1.695855699999999910e-01 2.452318500000000012e-01 1.092107999999999968e-02 7.601563999999999544e-02 -1.488537369999999971e+00 9.959225299999999725e-01 8.250748199999999866e-01
-2.106270999999999838e-02 -2.357201999999999908e-02 -1.440056399999999903e-01 -5.654167900000000024e-01 -1.483979199999999887e-01 -2.757366399999999773e-01 3.470430400000000248e-01 -2.636226700000000034e-01 1.444173300000000104e-01 3.831804899999999847e-01 -6.102649999999999741e-02 3.492614499999999733e-01 -1.439928299999999883e-01 4.967180299999999771e-01 -7.387828000000000450e-02
-3.825994200000000234e-01 6.529463500000000087e-01 6.813680399999999526e-01 -1.061847519999999934e+00 -3.485867000000000132e-02 -3.593266299999999802e-01 2.750832500000000014e-01 -3.785601900000000186e-01 7.262939000000000200e-02 3.365512900000000029e-01 9.962633999999999379e-02 1.399111700000000014e-01 8.323357700000000303e-01 -3.391276999999999764e-01 -5.344702399999999853e-01
-3.222184599999999843e-01 3.583834799999999765e-01 2.240859699999999954e-01 7.103571400000000535e-01 1.021728199999999975e-01 -2.407410000000000019e-03 -3.936346900000000093e-01 5.060115999999999920e-02 -1.022511200000000009e-01 -2.726297899999999830e-01 1.299842599999999904e-01 -9.565983000000000125e-02 2.774683299999999853e-01 -6.388150200000000112e-01 -2.112282000000000048e-02
-8.917877999999999916e-02 4.094757999999999731e-02 -5.233331000000000094e-02 -4.670131900000000225e-01 2.673268400000000100e-01 1.000465499999999980e-01 -1.287061200000000072e-01 5.439376099999999603e-01 -1.060406299999999968e-01 -3.821317300000000028e-01 1.213083400000000006e-01 -1.982758099999999968e-01 1.066766190000000059e+00 -9.708515199999999679e-01 2.591839599999999910e-01
1.751820600000000006e-01 -3.164273300000000066e-01 -4.080193799999999871e-01 -9.938105699999999487e-01 3.156350499999999726e-01 1.772046999999999928e-01 -6.406486000000000125e-02 5.343791199999999852e-01 -7.629165999999999725e-02 -2.986335700000000148e-01 -8.382138999999999562e-02 7.189323999999999715e-02 1.180827740000000015e+00 -4.465329900000000185e-01 2.373305800000000132e-01
1.924997400000000025e-01 -2.726988599999999874e-01 -2.333676100000000031e-01 5.781510000000000121e-03 8.359505999999999881e-02 2.886106800000000083e-01 -2.047051599999999971e-01 2.614934000000000008e-02 -1.082519000000000016e-02 -1.286976499999999968e-01 -2.885876900000000078e-01 3.934472500000000261e-01 1.339968300000000112e-01 4.545970500000000025e-01 -4.366889500000000202e-01
4.501114999999999977e-02 3.386403000000000330e-02 3.246847700000000114e-01 8.213451499999999683e-01 -1.860426900000000106e-01 3.120202599999999937e-01 -2.111791199999999979e-01 -3.870610899999999965e-01 7.550787999999999944e-02 -5.842330999999999913e-02 -1.592789799999999867e-01 1.800050300000000103e-01 -5.980018900000000359e-01 7.009208900000000186e-01 -8.915929400000000005e-01
-2.194739999999999885e-02 1.592857099999999970e-01 5.731020500000000295e-01 6.123260600000000053e-01 -2.812311800000000250e-01 1.953845899999999969e-01 5.769668000000000019e-02 -3.353130699999999909e-01 1.460290499999999936e-01 -2.683396000000000045e-02 1.756289099999999992e-01 -3.565316399999999830e-01 -6.226321900000000298e-01 2.837083000000000244e-01 -5.574082900000000285e-01
5.745222999999999997e-02 -2.973628000000000035e-02 2.557915700000000236e-01 -4.259933100000000139e-01 -1.615284700000000073e-01 -5.536500000000000405e-04 4.417261199999999999e-01 4.303693000000000102e-02 1.777809599999999879e-01 1.029343900000000006e-01 2.992057499999999925e-01 -5.172666599999999892e-01 -1.777987000000000040e-01 -1.490439899999999873e-01 8.496470999999999885e-02
1.808546699999999952e-01 -3.252367299999999739e-01 -3.100979300000000216e-01 -1.057990509999999995e+00 -3.216273000000000049e-02 -1.644104200000000016e-01 5.798339500000000424e-01 1.874684199999999967e-01 1.639918099999999879e-01 3.056634999999999769e-01 6.317796999999999996e-02 -8.249128000000000016e-02 -1.003767000000000027e-02 1.085282199999999947e-01 3.939433900000000044e-01
1.345228199999999874e-01 -2.676941999999999933e-01 -3.791319000000000217e-01 -2.624601200000000190e-01 -1.241434700000000058e-01 -2.474608899999999889e-01 3.388319100000000139e-01 -1.217848099999999933e-01 9.339835000000000498e-02 4.329533300000000251e-01 -2.721465000000000134e-01 4.803201799999999855e-01 -6.453208200000000172e-01 7.874037999999999871e-01 5.399560999999999944e-02
-7.010671999999999737e-02 1.490786100000000003e-01 1.088340700000000050e-01 6.701071499999999848e-01 -1.988294200000000067e-01 -2.567183499999999841e-01 8.325980000000000186e-03 -4.036677100000000129e-01 -1.855040999999999982e-02 3.298942899999999789e-01 -1.910137199999999980e-01 3.085681499999999855e-01 -9.394308000000000103e-01 6.460956300000000319e-01 -1.408654599999999979e-01
-1.302304499999999976e-01 3.185022299999999973e-01 -1.477844000000000033e-02 3.870386599999999788e-01 1.193665899999999946e-01 5.555486999999999925e-02 -3.331836699999999873e-01 -1.530506199999999983e-01 -8.828450000000000186e-02 -2.914259699999999786e-01 3.330583200000000188e-01 -1.639197500000000030e-01 3.678426599999999880e-01 -6.179311800000000243e-01 2.116037900000000138e-01
-2.175930399999999876e-01 4.438473900000000083e-01 4.091162199999999749e-01 1.316744300000000090e-01 1.712959599999999971e-01 1.521772899999999928e-01 1.171193400000000023e-01 8.191119399999999828e-01 -1.168973400000000024e-01 -2.740310499999999982e-01 -1.431677999999999944e-02 1.267755600000000094e-01 2.428089700000000128e-01 -1.419823590000000024e+00 -5.707790000000000363e-01
-6.939686000000000465e-02 1.128617499999999968e-01 2.262593400000000032e-01 -2.617380000000000262e-01 2.180603100000000072e-01 2.055839000000000139e-01 6.250160000000000438e-02 7.924964199999999792e-01 -8.815299000000000051e-02 -1.699456599999999984e-01 -3.302270999999999956e-01 4.196077300000000121e-01 4.385780100000000181e-01 -7.929225100000000248e-01 -7.628299299999999894e-01
1.897899799999999970e-01 -4.214607799999999793e-01 -3.326001100000000044e-01 -2.583137699999999981e-01 1.742533599999999960e-01 2.303751500000000008e-01 -4.033936699999999820e-01 -9.819192000000000198e-02 4.727040000000000061e-03 -1.541144999999999876e-01 -2.692244999999999777e-01 2.026190200000000108e-01 6.261101100000000530e-01 6.146869799999999939e-01 -1.046974400000000027e-01
2.174822700000000053e-01 -5.479223600000000527e-01 -3.638455199999999778e-01 1.360302899999999982e-01 1.335819999999999933e-03 2.035015900000000100e-01 -5.172626999999999642e-01 -5.971305399999999874e-01 9.967676999999999787e-02 -1.710551899999999959e-01 -6.613540000000000217e-03 -3.001746000000000136e-01 3.348952399999999829e-01 1.150284700000000049e+00 3.611506600000000122e-01
-3.000094000000000025e-02 -1.696630100000000030e-01 3.185002299999999953e-01 3.488393900000000269e-01 -1.909827699999999961e-01 9.787060000000000204e-02 -1.176439900000000038e-01 -3.074001699999999726e-01 1.496188400000000029e-01 -7.478954999999999631e-02 1.031935799999999931e-01 -4.933719599999999983e-01 -1.263009599999999899e-01 5.649406300000000547e-01 -7.249576000000000631e-02
-1.994970199999999971e-01 1.387204300000000057e-01 7.291528699999999530e-01 1.014593800000000018e-01 -2.771675800000000245e-01 -4.980555999999999872e-02 5.040450499999999945e-01 4.295629300000000095e-01 1.518792599999999882e-01 1.279857299999999920e-01 -2.612656000000000006e-02 -2.084742099999999931e-01 -5.337279000000000329e-01 -2.646617600000000237e-01 -6.225602399999999870e-01
-1.200813399999999947e-01 7.435548999999999631e-02 3.783023799999999937e-01 -3.512996099999999844e-01 -2.321869199999999911e-01 -1.711014700000000055e-01 6.718219899999999800e-01 4.692116700000000251e-01 1.318560500000000024e-01 3.134855599999999964e-01 -2.061336400000000069e-01 2.301678400000000124e-01 -5.135615000000000041e-01 -1.048085500000000003e-01 -5.689117900000000283e-01
1.315225600000000106e-01 -2.645515199999999845e-01 -4.575309799999999760e-01 -4.356936800000000276e-01 -1.617995700000000037e-01 -2.184588199999999980e-01 2.854977300000000051e-01 -3.365416600000000202e-01 6.835853000000000068e-02 3.344092900000000257e-01 -1.162549100000000030e-01 2.598486999999999880e-01 -3.153481200000000095e-01 8.795180900000000301e-01 3.480366500000000030e-01
2.038234700000000066e-01 -2.411331499999999906e-01 -6.510544400000000120e-01 -3.850817000000000129e-02 -1.329474400000000001e-01 -1.994504900000000081e-01 -5.500353000000000186e-02 -7.971527200000000368e-01 -3.909942000000000278e-02 2.002593099999999959e-01 1.820320199999999888e-01 -8.969787999999999373e-02 -3.102597400000000061e-01 9.894274299999999966e-01 9.793666500000000052e-01
-3.416456399999999727e-01 2.751621799999999785e-01 1.109212200000000009e-01 8.233290300000000173e-01 2.040180999999999939e-02 5.992288999999999949e-02 -2.239151400000000125e-01 2.921297299999999764e-01 -3.289836000000000149e-02 -3.774307800000000213e-01 2.351873999999999909e-01 -1.183299000000000017e-01 1.197696899999999981e-01 -8.228638799999999920e-01 -1.955807000000000032e-02
-1.868835000000000079e-01 1.880498700000000079e-01 1.349499000000000115e-01 -7.442615099999999595e-01 2.623388300000000228e-01 1.176721899999999960e-01 -4.495897799999999944e-01 -1.792351000000000014e-02 -6.334088999999999692e-02 -3.617549600000000143e-01 5.953702000000000299e-02 -4.845059999999999992e-03 1.742581340000000090e+00 -4.919071600000000100e-01 -1.842163400000000062e-01
9.092559999999999532e-02 -1.184279599999999988e-01 -1.366554899999999906e-01 -1.267563760000000039e+00 3.480420499999999917e-01 1.703441900000000064e-01 -4.281603299999999779e-01 -6.820149999999999824e-02 -6.954599000000000197e-02 -2.141841700000000071e-01 -2.159960900000000017e-01 2.819801299999999955e-01 1.819175970000000087e+00 5.463422999999999891e-02 -2.457491400000000048e-01
2.462315099999999868e-01 -3.185685400000000111e-01 -2.723268999999999829e-01 1.816755600000000137e-01 1.041229199999999938e-01 2.826331200000000154e-01 -1.364414800000000039e-01 2.031018800000000124e-01 -4.209949999999999803e-02 -1.081529900000000044e-01 -3.013048899999999919e-01 2.971929300000000218e-01 -1.827664300000000075e-01 3.125591200000000236e-01 -2.647382300000000188e-01
1.851521700000000048e-01 -1.744150700000000054e-01 6.822701999999999933e-02 1.096343829999999908e+00 -1.435055399999999870e-01 2.765765099999999976e-01 1.369570200000000126e-01 3.330291899999999750e-01 1.063660999999999947e-02 -7.753118999999999983e-02 -7.777006999999999670e-02 -1.338459800000000033e-01 -1.340138580000000079e+00 6.247256999999999810e-02 -2.207691300000000079e-01
8.123484000000000260e-02 6.116193999999999797e-02 4.633923600000000032e-01 7.201328200000000068e-01 -2.092971999999999888e-01 1.309013499999999997e-01 1.906752300000000011e-01 -3.022276999999999950e-02 6.659829000000000443e-02 2.447449999999999973e-02 1.505541099999999910e-01 -4.840852099999999880e-01 -1.015693100000000015e+00 2.762621999999999994e-02 -1.761769499999999988e-01
6.169792000000000332e-02 9.619484999999999841e-02 4.390017600000000186e-01 -6.580034500000000453e-01 -5.679220000000000101e-02 -7.440544000000000324e-02 1.862970999999999933e-01 -4.686649600000000193e-01 1.033424899999999952e-01 2.286416099999999951e-01 1.322213899999999942e-01 -3.558201300000000122e-01 1.824577500000000019e-01 2.968666400000000150e-01 -1.117653499999999994e-01
1.190562800000000004e-01 -9.796443999999999985e-02 -1.973304999999999851e-02 -1.327476689999999904e+00 3.334580999999999656e-02 -2.167568400000000062e-01 2.790635699999999830e-01 -4.714300200000000052e-01 1.091613800000000023e-01 4.172771200000000014e-01 -8.893719999999999404e-02 1.269852599999999887e-01 5.132406400000000257e-01 6.248293099999999711e-01 5.480800000000000515e-04
1.293160499999999880e-01 -2.445922600000000058e-01 -4.110340499999999841e-01 -1.252611700000000050e-01 -1.883409199999999950e-01 -2.654557300000000009e-01 4.314533899999999922e-01 -3.003085999999999950e-02 8.489547999999999539e-02 4.223579000000000083e-01 -1.838815599999999995e-01 3.715999099999999777e-01 -8.568982099999999935e-01 6.467166800000000437e-01 2.199548799999999915e-01
-2.398426999999999851e-02 -2.233223000000000152e-02 -1.946161600000000103e-01 9.302102599999999555e-01 -3.147181900000000088e-01 -2.413169799999999865e-01 4.278345199999999959e-01 2.924145100000000164e-01 3.220644999999999758e-02 2.247144199999999981e-01 3.502444999999999864e-02 5.487323999999999674e-02 -1.558096240000000021e+00 9.445109999999999617e-03 3.486501100000000131e-01
-4.713554500000000091e-01 3.494854499999999753e-01 5.230667799999999534e-01 7.729848700000000461e-01 4.557036999999999893e-02 -4.740422999999999859e-02 -2.392174999999999996e-01 3.961705799999999944e-01 -8.983191000000000093e-02 -3.083648900000000026e-01 9.564383999999999386e-02 -3.720382500000000148e-01 2.463003900000000079e-01 -8.889121199999999723e-01 -1.145373000000000051e-02
4.537595999999999991e-02 -2.836868900000000249e-01 -4.059247000000000272e-01 -5.890527500000000138e-01 2.671839899999999823e-01 7.061844999999999928e-02 -6.163385599999999798e-01 -2.226726699999999892e-01 -9.357609999999999539e-02 -2.424397399999999869e-01 -1.646444499999999977e-01 1.668612200000000045e-01 1.403359610000000091e+00 4.019036899999999801e-01 2.649891100000000277e-01
3.965432600000000085e-01 -6.462959000000000342e-01 -9.629319699999999704e-01 -1.137011999999999912e+00 3.260157699999999825e-01 1.759310299999999883e-01 -5.380465899999999912e-01 -2.974071699999999985e-01 -7.388190000000000035e-02 -1.464694599999999958e-01 -3.575740199999999924e-01 5.947540599999999733e-01 1.425838619999999946e+00 9.731122100000000330e-01 2.695244099999999920e-01
1.609067799999999993e-01 -7.632811000000000456e-02 -1.201112399999999941e-01 4.926031000000000160e-02 5.200808999999999988e-02 3.294446899999999845e-01 -8.962019999999999362e-03 2.494568199999999958e-01 -3.210559999999999803e-02 -2.022845100000000007e-01 -1.435546199999999939e-01 3.007869899999999763e-01 6.255899999999999786e-04 -8.440213000000000576e-02 -4.753838000000000230e-01
-8.890908000000000144e-02 4.993022300000000135e-01 7.539989099999999667e-01 9.294252400000000414e-01 -2.140224799999999872e-01 3.769919199999999804e-01 4.162511600000000089e-01 6.028275300000000003e-01 3.185792999999999958e-02 -2.537071799999999766e-01 2.809301499999999896e-01 -3.050834299999999888e-01 -1.004615700000000000e+00 -1.171819919999999904e+00 -8.559788600000000081e-01
-5.547513999999999917e-02 4.814128300000000138e-01 7.396054499999999976e-01 6.736187000000000147e-01 -2.614021200000000156e-01 2.579229200000000000e-01 2.806030800000000047e-01 -4.375699999999999729e-02 1.203269700000000053e-01 -1.119503099999999973e-01 4.453962599999999883e-01 -4.702642400000000000e-01 -7.887697299999999467e-01 -6.238103900000000479e-01 -6.457089799999999880e-01
2.235490599999999939e-01 -1.138011200000000056e-01 -1.581792099999999868e-01 -4.863851599999999831e-01 -7.211887000000000159e-02 3.370805999999999802e-02 4.922170000000000017e-02 -7.623448200000000341e-01 1.845832099999999976e-01 1.851142899999999869e-01 2.044089299999999887e-01 -4.050316000000000333e-02 2.606473000000000123e-02 7.424886699999999617e-01 -1.699989000000000014e-02
4.133989000000000136e-01 -6.336755200000000476e-01 -9.334882899999999983e-01 -1.169559559999999943e+00 8.206968000000000596e-02 -1.618579400000000057e-01 9.942982000000000209e-02 -6.854099099999999556e-01 1.857321100000000058e-01 4.453614300000000026e-01 -1.737841099999999916e-01 4.986458100000000226e-01 2.089505500000000127e-01 1.409842990000000018e+00 4.140503099999999770e-01