3.869120000000000115e+00 5.066919999999999646e+00 3.782509999999999817e+00 5.139710000000000001e+00 5.737409999999999677e+00 4.812570000000000014e+00 5.401650000000000063e+00 4.199080000000000368e+00 3.883290000000000131e+00 4.283350000000000435e+00 4.265530000000000044e+00 5.315050000000000274e+00 4.665869999999999962e+00 4.769210000000000171e+00 4.440780000000000172e+00
5.389400000000000190e+00 3.912180000000000213e+00 3.507810000000000095e+00 4.026749999999999829e+00 4.672679999999999723e+00 4.329760000000000275e+00 5.619749999999999801e+00 5.534449999999999648e+00 4.365920000000000023e+00 5.414950000000000152e+00 3.999719999999999942e+00 5.281830000000000247e+00 5.085390000000000299e+00 4.577449999999999797e+00 4.358999999999999986e+00
5.928239999999999732e+00 4.864270000000000316e+00 3.703450000000000131e+00 5.461020000000000429e+00 4.518519999999999648e+00 5.452600000000000335e+00 4.710040000000000227e+00 3.600950000000000095e+00 4.071979999999999933e+00 4.271429999999999616e+00 5.260460000000000136e+00 4.212209999999999788e+00 5.092069999999999652e+00 4.567020000000000302e+00 4.362759999999999749e+00
6.035319999999999574e+00 4.759680000000000355e+00 3.839280000000000026e+00 5.427340000000000053e+00 4.318999999999999950e+00 5.422139999999999738e+00 4.565319999999999823e+00 3.725039999999999907e+00 3.937209999999999877e+00 4.472129999999999939e+00 5.450269999999999726e+00 4.364429999999999588e+00 5.081290000000000084e+00 4.566209999999999880e+00 4.352520000000000167e+00
5.066569999999999574e+00 3.826680000000000081e+00 5.156649999999999956e+00 4.459520000000000373e+00 4.654420000000000002e+00 3.603600000000000136e+00 6.104210000000000136e+00 4.887310000000000265e+00 4.071539999999999715e+00 4.867930000000000312e+00 5.638449999999999740e+00 5.015130000000000088e+00 5.115000000000000213e+00 4.754640000000000200e+00 4.470539999999999736e+00
4.197259999999999991e+00 4.171759999999999913e+00 3.648050000000000015e+00 4.065489999999999604e+00 5.612770000000000259e+00 4.696819999999999773e+00 5.688819999999999766e+00 5.129489999999999661e+00 4.133070000000000022e+00 4.805559999999999832e+00 4.122779999999999667e+00 5.344039999999999679e+00 4.660599999999999632e+00 4.788549999999999862e+00 4.438399999999999679e+00
4.646849999999999703e+00 4.647569999999999979e+00 3.388430000000000053e+00 4.283120000000000260e+00 5.414570000000000327e+00 4.967220000000000191e+00 5.896530000000000271e+00 5.343530000000000335e+00 4.342570000000000263e+00 5.126940000000000275e+00 3.814740000000000020e+00 4.913859999999999673e+00 4.982280000000000264e+00 4.740029999999999966e+00 4.388230000000000075e+00
5.489770000000000039e+00 4.362849999999999895e+00 3.356869999999999798e+00 4.088140000000000107e+00 4.960009999999999586e+00 4.275830000000000020e+00 5.690959999999999575e+00 5.594339999999999868e+00 4.737040000000000362e+00 5.139870000000000161e+00 3.944729999999999848e+00 5.200440000000000396e+00 5.140209999999999724e+00 4.695909999999999584e+00 4.387400000000000411e+00
5.614899999999999558e+00 3.905860000000000110e+00 3.642510000000000137e+00 4.105640000000000178e+00 4.194460000000000299e+00 4.421859999999999680e+00 5.028439999999999799e+00 5.589800000000000324e+00 3.906460000000000043e+00 5.575149999999999828e+00 4.651340000000000252e+00 5.330409999999999648e+00 5.095950000000000202e+00 4.558919999999999639e+00 4.374340000000000117e+00
4.346429999999999794e+00 5.385360000000000369e+00 5.007679999999999687e+00 4.569469999999999921e+00 3.809810000000000141e+00 4.107800000000000118e+00 5.889240000000000030e+00 4.500180000000000291e+00 5.205160000000000231e+00 5.561049999999999827e+00 5.255889999999999951e+00 3.589290000000000092e+00 5.126000000000000334e+00 4.759269999999999889e+00 4.465290000000000425e+00
4.891479999999999606e+00 4.515769999999999840e+00 3.489259999999999806e+00 4.012319999999999887e+00 5.254330000000000389e+00 4.767009999999999970e+00 5.812529999999999752e+00 5.271829999999999572e+00 4.844339999999999868e+00 4.793429999999999858e+00 3.708289999999999864e+00 5.074499999999999567e+00 4.893340000000000245e+00 4.665110000000000312e+00 4.540000000000000036e+00
5.479560000000000208e+00 3.777519999999999989e+00 4.194860000000000255e+00 4.079889999999999795e+00 4.965720000000000134e+00 4.051730000000000054e+00 5.785309999999999953e+00 5.596529999999999561e+00 4.138040000000000163e+00 5.071760000000000268e+00 4.745899999999999785e+00 5.595489999999999853e+00 5.121809999999999974e+00 4.748070000000000235e+00 4.459439999999999849e+00
5.115429999999999922e+00 3.777099999999999902e+00 5.051619999999999777e+00 4.425040000000000084e+00 4.647649999999999615e+00 3.641109999999999847e+00 6.097279999999999589e+00 4.889190000000000147e+00 4.069180000000000241e+00 4.851950000000000429e+00 5.592240000000000322e+00 5.071279999999999788e+00 5.115709999999999980e+00 4.763029999999999653e+00 4.471689999999999721e+00
5.416140000000000398e+00 3.749950000000000117e+00 4.420849999999999724e+00 4.160549999999999748e+00 4.913649999999999629e+00 3.914169999999999927e+00 5.925810000000000244e+00 5.383939999999999948e+00 4.067219999999999835e+00 4.939949999999999619e+00 5.091109999999999580e+00 5.504529999999999923e+00 5.119650000000000034e+00 4.743660000000000210e+00 4.465550000000000352e+00
5.266160000000000174e+00 4.851720000000000255e+00 3.409209999999999852e+00 4.032040000000000290e+00 4.496730000000000338e+00 4.724520000000000053e+00 5.356840000000000046e+00 5.667469999999999786e+00 5.024250000000000327e+00 5.767149999999999999e+00 3.936420000000000030e+00 4.812890000000000335e+00 5.121340000000000003e+00 4.759179999999999744e+00 4.460210000000000008e+00
4.215609999999999857e+00 4.803659999999999819e+00 3.768060000000000187e+00 4.855450000000000266e+00 3.507029999999999870e+00 4.825179999999999580e+00 4.817090000000000316e+00 5.273830000000000240e+00 5.386569999999999858e+00 6.021040000000000170e+00 4.697739999999999583e+00 4.091610000000000191e+00 4.961219999999999963e+00 4.571390000000000065e+00 4.551989999999999981e+00
4.251339999999999897e+00 5.686300000000000132e+00 4.026970000000000383e+00 5.715309999999999668e+00 4.959999999999999964e+00 4.618019999999999570e+00 4.550209999999999866e+00 3.924869999999999859e+00 3.745730000000000004e+00 4.145979999999999777e+00 4.584050000000000402e+00 5.436480000000000423e+00 4.668449999999999989e+00 4.778679999999999595e+00 4.437960000000000349e+00
5.805030000000000356e+00 4.938690000000000246e+00 3.597840000000000149e+00 5.454869999999999663e+00 4.749480000000000146e+00 5.436090000000000089e+00 4.893699999999999939e+00 3.512129999999999974e+00 4.240050000000000097e+00 4.140729999999999578e+00 5.051470000000000127e+00 4.147710000000000008e+00 5.098440000000000083e+00 4.566390000000000171e+00 4.364300000000000068e+00
4.252690000000000303e+00 5.699620000000000353e+00 4.057640000000000136e+00 5.715449999999999697e+00 4.824869999999999770e+00 4.624249999999999972e+00 4.475959999999999717e+00 3.926289999999999836e+00 3.773109999999999964e+00 4.150059999999999860e+00 4.602990000000000137e+00 5.430810000000000137e+00 4.674179999999999779e+00 4.787139999999999951e+00 4.433080000000000354e+00
4.861539999999999750e+00 4.540790000000000326e+00 3.436059999999999892e+00 4.005160000000000053e+00 5.286550000000000082e+00 4.786979999999999791e+00 5.785300000000000331e+00 5.174339999999999939e+00 4.822079999999999700e+00 4.828769999999999563e+00 3.660169999999999924e+00 4.963930000000000398e+00 4.895749999999999602e+00 4.672480000000000189e+00 4.553840000000000110e+00
