-2.197023610407038063e+02
-2.196786244105431081e+02
-2.196877364870171334e+02
-2.196750715607185498e+02
-2.196700496401215901e+02
-2.196816788869804498e+02
-2.196658342760232188e+02
-2.196670716686247715e+02
-2.196644972412507286e+02
-2.196645117444847415e+02
-2.196844296666738501e+02
-2.196554884925782858e+02
-2.196772386319182431e+02
-2.196733881118709917e+02
-2.196836717777319734e+02
-2.196821888643800378e+02
-2.197082655764657204e+02
-2.196810316598601673e+02
-2.196759639716338199e+02
-2.196924757682082827e+02
