-6.419833758277700975e-01 3.395090299773776549e-02 -4.123201003451935631e-01 -3.177281866738034810e-01 -1.026604981837976993e+00 -4.327824819486859043e-01 2.226025119865457091e-01 -3.024563481282774302e-01 1.321547023872925858e-02 -1.759225914678155811e-01 -5.196903967182342488e-01 2.784129340445317125e-01 9.128886886471870854e-01 1.814838876013508573e+00 5.535261142944361001e-01
-5.957194598002123892e-02 7.393196850113817886e-01 3.552812051977007890e-01 -1.094535069968204821e+00 3.067984271436793309e-01 1.378311839423638774e-01 -1.469560290546693404e-01 -2.202715498623371640e-02 -2.468670409419899958e-01 -5.378804373495498226e-01 6.590241333468848106e-01 -7.429793932483093055e-01 1.839284410631366384e+00 -1.683100692338020288e+00 4.967129620043285176e-01
-1.799993326371792102e-01 -1.622530644111564446e-01 2.047040344534931944e-01 -6.407842133142791496e-01 2.206500162473840343e-01 -1.471214024098746131e+00 2.694104734426082740e-02 -6.880416036025848170e-01 -1.441159885049221878e-01 -1.865407332950342612e-01 4.708270953966385841e-01 2.961278348120112147e-01 9.811684468070775988e-01 1.585799864378006629e-01 1.114786621112635823e+00
-2.786258213861206312e-01 1.901587896607813107e-03 -3.246459968341779967e-01 -7.696268206117797828e-01 2.635807541392435338e-01 -1.208291472368279607e+00 -3.673170533069496368e-01 -6.215945277746333097e-01 -3.730069045984492626e-01 -4.302072650243452534e-01 5.725265666415585430e-01 -3.909105243378202532e-03 1.845791358506887025e+00 -2.165928154620309631e-01 1.909500209470199605e+00
5.017816347725446297e-02 1.329673252518164706e+00 -1.065923834011672122e+00 -3.336679978201120833e-01 -1.728228694989805692e-01 5.361727106311521551e-02 8.560662803857062020e-01 -1.051673751861646050e-01 -9.417025275326718070e-02 -3.880154621804644544e-01 7.579123603974414758e-01 6.171922849453039817e-01 -1.841007563968719840e-01 -1.810763677506040503e+00 4.898774271450511697e-01
1.389928083497292133e-01 3.008504370949874884e-01 1.045035163504370035e-01 -1.018590339069851192e+00 1.328168642949350664e+00 3.554411278142083352e-01 -8.565316500575369529e-01 -2.295311207801892239e-01 6.062147028964172402e-02 -2.160030043972907821e-01 6.380485595527990439e-01 -7.573194640089101481e-01 1.951413818952245194e+00 -2.037018698640667758e+00 2.366613040615206942e-01
-6.307630816406466501e-01 -4.465857063696279106e-01 -1.145877428955984101e+00 2.898224614241786679e-01 -8.134055083255716800e-01 -5.016273685829873985e-01 3.508491375717237570e-01 -3.003058774458506885e-01 9.322614367317741402e-02 1.189274050740306010e-01 -6.104390253871239125e-01 1.682262512708093127e-01 -1.304464614482630791e-01 2.169191912970707126e+00 1.387129180598093647e+00
-8.401130995029693072e-02 7.037623567597223184e-02 1.398361301859749828e+00 -2.764121015659755098e-01 2.959889952414098135e-01 -9.797291432585093773e-02 -1.265553539269998751e-01 -3.742322923641648313e-01 -2.853117180415275511e-01 4.447021161951351109e-01 -9.858432265712911702e-02 -5.740861978179813141e-01 4.082243330124511738e-02 1.079858184693737455e-01 -4.404140303460781780e-01
1.918788576743435392e-01 2.526242551362628541e-01 5.281647527312404167e-01 -1.390890704520128862e+00 -4.989858171971372491e-01 4.767097794250846898e-01 1.555270585464646471e-01 -8.825656122072015330e-01 4.344711825037048114e-01 3.454405649658500721e-01 -2.315026426827296036e-01 5.804702469624880568e-01 6.998342253529653556e-01 1.360513120693166433e+00 -2.018401854884910751e+00
8.502303904347591201e-01 -3.779706763577664885e-01 -7.920272997767416889e-01 9.299027066934452135e-01 1.228000006525469479e+00 5.324620945516707060e-01 1.387536957559156459e-01 -1.413391970928934704e-01 -1.188034779017530240e-01 -9.021126810859883549e-02 1.495055349474171957e-01 1.840364788178898425e-01 -1.829029822790870785e+00 -8.583051970168121825e-01 1.951194760963073926e-01
1.909907986431262084e-01 -3.248825383248323262e-01 -1.239200246107950543e+00 -3.579063015233315825e-01 3.380614988986997416e-01 2.108921655372623938e-01 -1.010329898839697593e+00 -9.362533314968815024e-01 -2.532351492469092080e-01 3.354631420459254221e-01 1.539334888083392638e-01 -6.234925161268180943e-02 8.410314975514662228e-01 7.678820700078883288e-01 1.345337441405797696e+00
3.518441544943674559e-01 -7.253297985010757065e-01 -6.705138791451014102e-01 1.125555429584988554e+00 -4.636017812984135622e-01 4.294138225893895933e-01 -3.043054855204357922e-01 -8.554101348594564946e-01 1.750813265140972463e-01 -5.514964854604957611e-02 2.105831189375162449e-01 -1.086141446594400151e+00 -1.118110029056328614e+00 1.832168625527726746e+00 1.153330028573489763e+00
-8.897508170961419827e-02 1.271011991277162467e+00 -4.614986189141176975e-01 -3.054604250595869819e-01 5.369954636421236244e-02 -2.246614513965017879e-01 9.470288248374483242e-01 2.110973395693733767e-01 -3.394694349887246165e-01 -3.924254183192714684e-01 9.577050735960668248e-01 8.966624566089341775e-01 -1.596757906042882980e-01 -2.493011557249490640e+00 1.296946708844878560e-01
4.974776080839001247e-01 -2.125669307131580421e+00 2.980062827801854830e-02 7.220254167207614815e-01 -1.557507445213225095e-01 1.357048816296344829e-01 -2.669612405730725779e-01 -1.121129532606593981e-01 -1.393712747347760905e-01 1.210701624469794485e-01 -3.939331132118767398e-01 -2.533637044048734355e-01 -1.073493161712609556e+00 2.784565913761764211e+00 2.286132369523241614e-01
-3.596921897777715510e-02 3.538568140474563917e-01 -1.027697700680673787e+00 1.385570577862934583e+00 2.418400200449542792e-01 -5.661327473050463688e-01 1.798903178632254851e-01 1.165907865228716367e-01 -2.134534985045429545e-01 -1.470871553157929446e-01 1.584216064831886484e-01 5.569523663645004063e-02 -1.382229686417758563e+00 -8.708496093309678887e-01 1.752778102175298836e+00
2.277154077291015377e-01 -5.266339179102016987e-02 1.637515033323882208e-01 -5.252609488231430035e-02 3.519757949761228577e-01 2.284929093244695564e-01 1.242099936250993242e-01 -3.191242956892956784e-01 7.030938699383079693e-03 -1.589051281433239593e+00 -4.967062771361143575e-02 7.449894816982390866e-01 1.289431374310286094e+00 6.655454794000975616e-02 -1.142364787819767802e+00
-3.309673110615981573e-01 3.627415181246845255e-01 -3.789764919136791588e-01 6.652009515767531855e-01 -2.329779416755278429e-02 1.721394702792423681e-01 -8.040713754161003812e-02 2.771273824648888273e-01 2.576245365604419302e-01 6.248125204887955420e-01 4.616415722497739516e-02 -1.201401430122025493e+00 -8.790761109994188471e-01 -6.624565560645313544e-01 1.150667908362365432e+00
3.513206778911368011e-02 -2.751532894591891543e-01 4.438048011925443403e-01 -4.402777618786359870e-01 -2.070920750678379232e-02 -1.416763715612022301e+00 2.570727778224592419e-01 -6.196821412447564015e-01 -1.107687805289847421e-01 -7.368884498639610703e-02 3.125880372377592420e-01 3.616174318234448015e-01 2.226282230181385879e-01 6.026161869146807737e-01 7.225787181206398957e-01
-1.655841856643271853e-02 6.428184701339060281e-01 -5.400051970003836299e-01 1.288382878441929558e+00 3.545165591181291265e-01 1.280707621290829434e-01 -1.190662446446320299e-01 2.761652756626840621e-01 4.262014863021778427e-02 5.695908810542859024e-01 2.341555069224807162e-02 -1.043641111371405028e+00 -1.722839148547310462e+00 -1.296701939824114636e+00 1.412766678640596352e+00
2.227387804539878446e-01 1.622839176490678548e-01 7.167829373789776914e-01 2.852988625257311117e-01 -2.826783941857869409e-01 2.592957536139777752e-01 1.182728022096764420e+00 5.798711799263743805e-01 4.571174591306945700e-01 -1.446502637414218140e-02 1.196848520647562086e-01 3.328781549295794506e-01 -1.677566135677341697e+00 -5.802614733859540186e-01 -1.765759602026532704e+00
