
5 atoms
2 atom types
   0.0000000000   10.0000000000 xlo xhi
   0.0000000000   10.0000000000 ylo yhi
   0.0000000000   10.0000000000 zlo zhi
   0.0000000000    0.0000000000    0.0000000000 xy xz yz

Atoms # atomic

     1      1    5.3658622137    4.0541488640    3.5984781201
     2      1    3.9261074197    4.8262800377    4.4244815047
     3      1    5.5636012044    5.6503256685    4.4306429779
     4      1    5.2872882289    4.1434690609    5.3670257379
     5      2    5.0193647333    4.6887921688    4.4410277594
