
5 atoms
2 atom types
   0.0000000000   10.0000000000 xlo xhi
   0.0000000000   10.0000000000 ylo yhi
   0.0000000000   10.0000000000 zlo zhi
   0.0000000000    0.0000000000    0.0000000000 xy xz yz

Atoms # atomic

     1      1    5.3073556221    4.1084135540    3.5497115768
     2      1    3.9152605175    4.8958358888    4.3673504113
     3      1    5.5386452961    5.7145625762    4.3776194596
     4      1    5.2122094486    4.2350277369    5.2936214104
     5      2    4.9806128520    4.7622478104    4.3902068637
