
5 atoms
2 atom types
   0.0000000000   10.0000000000 xlo xhi
   0.0000000000   10.0000000000 ylo yhi
   0.0000000000   10.0000000000 zlo zhi
   0.0000000000    0.0000000000    0.0000000000 xy xz yz

Atoms # atomic

     1      1    5.0514950640    4.1363872222    3.5958180468
     2      1    3.5986615801    4.9266897485    4.4225585342
     3      1    5.1743993676    5.7686090403    4.4268411054
     4      1    4.9201412822    4.2307225699    5.3551354666
     5      2    4.6616315742    4.7864179820    4.4401985882
