
5 atoms
2 atom types
   0.0000000000   10.0000000000 xlo xhi
   0.0000000000   10.0000000000 ylo yhi
   0.0000000000   10.0000000000 zlo zhi
   0.0000000000    0.0000000000    0.0000000000 xy xz yz

Atoms # atomic

     1      1    5.4803976495    4.0650591268    3.5532940336
     2      1    4.0094602753    4.8463387768    4.3663362083
     3      1    5.6905442873    5.6639818663    4.3739129247
     4      1    5.3921952371    4.1707651295    5.3016096713
     5      2    5.1265532466    4.7055626336    4.3853141077
