
5 atoms
2 atom types
   0.0000000000   10.0000000000 xlo xhi
   0.0000000000   10.0000000000 ylo yhi
   0.0000000000   10.0000000000 zlo zhi
   0.0000000000    0.0000000000    0.0000000000 xy xz yz

Atoms # atomic

     1      1    5.3412911749    3.9554170353    3.6753737025
     2      1    3.8387925897    4.7181849675    4.5245627653
     3      1    5.5021294395    5.5070812313    4.5352008043
     4      1    5.2312730544    4.0514581494    5.4851055353
     5      2    4.9608574456    4.5755679836    4.5395920383
