4.764160000000000394e+00 4.976359999999999673e+00 3.391290000000000138e+00 5.301960000000000228e+00 5.697230000000000238e+00 4.776550000000000296e+00 5.862560000000000215e+00 4.090620000000000367e+00 4.399980000000000224e+00 4.144219999999999793e+00 4.290379999999999860e+00 4.845279999999999809e+00 5.051599999999999646e+00 4.743879999999999875e+00 4.376970000000000027e+00
4.890909999999999869e+00 4.445879999999999832e+00 3.330519999999999925e+00 4.463449999999999918e+00 5.662779999999999703e+00 4.533900000000000041e+00 6.099129999999999718e+00 4.960060000000000358e+00 4.525389999999999802e+00 4.740140000000000242e+00 4.044509999999999827e+00 5.078969999999999985e+00 5.041540000000000354e+00 4.738990000000000258e+00 4.372329999999999828e+00
5.071609999999999729e+00 5.182789999999999786e+00 3.554180000000000117e+00 4.408009999999999984e+00 4.071329999999999671e+00 4.752589999999999648e+00 5.026749999999999829e+00 5.551239999999999952e+00 5.273799999999999599e+00 6.108850000000000335e+00 4.310769999999999769e+00 4.738190000000000346e+00 5.161319999999999908e+00 4.778030000000000221e+00 4.527079999999999771e+00
5.878910000000000302e+00 4.679700000000000415e+00 3.653630000000000155e+00 4.534469999999999779e+00 3.817279999999999784e+00 4.382760000000000211e+00 4.363010000000000055e+00 5.544690000000000119e+00 4.034040000000000070e+00 5.492510000000000225e+00 4.924159999999999648e+00 5.433760000000000367e+00 5.035260000000000069e+00 4.751280000000000392e+00 4.369379999999999598e+00
5.240990000000000038e+00 4.066419999999999924e+00 3.693729999999999958e+00 4.390920000000000378e+00 5.591820000000000235e+00 4.134479999999999933e+00 6.046339999999999826e+00 5.228060000000000151e+00 4.767920000000000158e+00 4.649759999999999671e+00 4.397450000000000081e+00 5.317029999999999923e+00 5.070400000000000240e+00 4.862870000000000026e+00 4.417869999999999742e+00
4.593589999999999840e+00 3.805149999999999810e+00 4.676650000000000418e+00 4.820719999999999672e+00 5.262649999999999828e+00 3.595720000000000027e+00 6.288999999999999702e+00 4.625840000000000174e+00 4.476259999999999906e+00 4.897979999999999556e+00 5.520369999999999777e+00 5.371929999999999872e+00 5.162480000000000402e+00 4.769879999999999676e+00 4.543599999999999639e+00
5.554509999999999614e+00 3.779420000000000002e+00 3.739290000000000003e+00 4.152999999999999581e+00 4.286030000000000229e+00 4.655470000000000219e+00 5.232350000000000279e+00 5.535479999999999734e+00 4.064569999999999794e+00 5.773159999999999847e+00 4.488330000000000375e+00 5.352899999999999991e+00 5.189869999999999983e+00 4.570570000000000022e+00 4.430469999999999686e+00
5.233159999999999812e+00 3.845429999999999904e+00 4.034849999999999604e+00 4.238780000000000214e+00 5.249660000000000437e+00 4.343359999999999665e+00 5.949480000000000324e+00 5.467159999999999798e+00 4.302249999999999908e+00 5.183799999999999741e+00 4.641189999999999927e+00 5.590130000000000265e+00 5.162149999999999572e+00 4.770760000000000112e+00 4.531100000000000350e+00
5.879900000000000126e+00 4.800329999999999764e+00 3.662450000000000205e+00 4.900269999999999904e+00 3.742599999999999927e+00 4.562960000000000349e+00 4.118750000000000355e+00 5.187389999999999723e+00 3.981170000000000098e+00 5.265220000000000233e+00 5.202820000000000000e+00 5.295490000000000030e+00 5.043989999999999974e+00 4.753999999999999559e+00 4.369559999999999889e+00
4.405990000000000073e+00 4.072479999999999656e+00 4.787230000000000096e+00 5.060130000000000017e+00 5.052749999999999631e+00 3.545139999999999958e+00 6.154690000000000438e+00 4.414019999999999833e+00 4.645830000000000126e+00 5.055830000000000268e+00 5.690649999999999764e+00 5.089629999999999654e+00 5.156200000000000117e+00 4.768550000000000288e+00 4.547990000000000421e+00
5.175900000000000389e+00 4.503969999999999807e+00 3.385850000000000026e+00 5.252390000000000114e+00 4.109969999999999679e+00 5.180240000000000400e+00 4.111609999999999765e+00 5.226239999999999775e+00 4.593329999999999913e+00 5.765069999999999695e+00 5.660849999999999937e+00 4.666030000000000122e+00 5.072320000000000384e+00 4.844769999999999577e+00 4.425180000000000113e+00
5.459670000000000023e+00 4.399099999999999788e+00 3.590549999999999908e+00 4.088750000000000107e+00 4.776259999999999728e+00 4.551160000000000316e+00 5.589610000000000412e+00 5.732140000000000235e+00 4.715419999999999945e+00 5.496900000000000119e+00 4.068579999999999863e+00 5.243699999999999584e+00 5.159670000000000201e+00 4.789710000000000356e+00 4.545239999999999725e+00
4.925049999999999706e+00 3.758210000000000051e+00 4.434260000000000090e+00 4.541540000000000354e+00 5.307529999999999859e+00 3.863900000000000112e+00 6.171450000000000102e+00 4.878300000000000303e+00 4.202609999999999957e+00 5.039229999999999876e+00 5.098160000000000025e+00 5.558519999999999683e+00 5.156150000000000233e+00 4.784200000000000230e+00 4.548709999999999809e+00
5.504080000000000084e+00 4.026089999999999947e+00 3.529090000000000060e+00 4.202810000000000379e+00 4.978110000000000035e+00 4.250860000000000305e+00 5.958210000000000228e+00 5.255609999999999893e+00 4.672550000000000203e+00 5.141239999999999810e+00 3.808510000000000062e+00 5.302959999999999674e+00 5.182089999999999641e+00 4.572320000000000384e+00 4.435200000000000031e+00
5.931720000000000326e+00 4.772339999999999804e+00 3.718249999999999833e+00 4.648979999999999890e+00 3.756959999999999855e+00 4.428670000000000329e+00 4.267890000000000406e+00 5.469649999999999679e+00 4.063200000000000145e+00 5.466759999999999842e+00 5.055329999999999657e+00 5.403310000000000279e+00 5.031390000000000029e+00 4.743909999999999627e+00 4.360280000000000378e+00
4.456339999999999968e+00 3.907319999999999904e+00 4.177940000000000431e+00 5.624050000000000438e+00 4.967469999999999608e+00 3.614559999999999995e+00 5.721610000000000085e+00 4.545960000000000001e+00 5.336479999999999890e+00 4.367280000000000051e+00 5.564709999999999823e+00 4.733349999999999724e+00 5.075020000000000309e+00 4.757799999999999585e+00 4.459959999999999702e+00
5.239080000000000403e+00 4.671100000000000030e+00 3.336190000000000211e+00 5.738150000000000084e+00 4.138749999999999929e+00 4.930600000000000094e+00 4.012540000000000440e+00 4.626030000000000086e+00 4.687540000000000262e+00 5.345979999999999954e+00 5.949290000000000411e+00 4.525470000000000326e+00 5.069759999999999600e+00 4.854420000000000179e+00 4.453990000000000116e+00
4.237519999999999953e+00 4.751120000000000232e+00 3.741560000000000219e+00 5.559840000000000337e+00 3.847339999999999982e+00 4.315509999999999735e+00 4.590160000000000018e+00 4.867810000000000414e+00 5.447429999999999772e+00 5.736629999999999896e+00 5.562459999999999738e+00 4.229099999999999859e+00 5.078780000000000072e+00 4.754199999999999982e+00 4.470690000000000275e+00
5.454340000000000188e+00 3.983979999999999855e+00 3.534139999999999837e+00 4.146219999999999573e+00 4.851189999999999891e+00 4.303309999999999746e+00 5.886510000000000353e+00 5.376360000000000028e+00 4.465300000000000047e+00 5.286089999999999733e+00 3.867059999999999942e+00 5.368829999999999991e+00 5.184859999999999580e+00 4.571460000000000079e+00 4.442190000000000083e+00
4.815760000000000041e+00 5.489379999999999704e+00 3.719650000000000123e+00 4.687759999999999927e+00 3.760590000000000099e+00 4.402499999999999858e+00 4.970839999999999925e+00 5.230760000000000076e+00 5.575169999999999959e+00 6.284390000000000143e+00 4.665619999999999656e+00 4.385979999999999990e+00 5.149359999999999715e+00 4.775520000000000209e+00 4.546710000000000029e+00
