-2.195990547253705074e+02
-2.196763012695605539e+02
-2.196625568328732641e+02
-2.196402790883126954e+02
-2.196336921774480118e+02
-2.196480724812214191e+02
-2.196600361222954518e+02
-2.196449596458319320e+02
-2.196371880407896811e+02
-2.196110288010458476e+02
-2.196581697703726661e+02
-2.196483105657021611e+02
-2.196560006100328621e+02
-2.196475788756116572e+02
-2.196310973217685216e+02
-2.196375321207178217e+02
-2.196084492889770843e+02
-2.196396755477369140e+02
-2.196259461026161830e+02
-2.196208460771523789e+02
