-2.820839551353600538e-01 9.739338767374791260e-04 -1.794544130336001464e+00 2.498603192400305761e-01 8.498596373591901232e-01 9.972234433749221916e-01 1.527497529138040822e+00 -1.267152765435074491e+00 4.019971211606609279e-02 6.794798300821630610e-01 3.507426939009293254e-01 7.376957762559768761e-02 -2.175494201034748443e+00 6.397470302998232994e-02 6.850323844649567340e-01
-7.480624641942174025e-02 -3.488971560531939908e-01 3.434119645731735504e-02 1.243915135081448964e-01 -3.316414543099629325e-02 1.241842825935064558e-02 1.925339747593295681e-01 8.593706621660204825e-02 -3.690047254207049193e-03 -7.549828454577511838e-01 -1.795510865123893129e+00 1.293228379455919619e+00 5.126795126234936495e-01 2.090072383891267371e+00 -1.334517210870259207e+00
1.215103353078491504e-03 3.537693965400406926e-01 -1.226001745150072431e+00 -1.116282488930708361e+00 -1.066811893042889370e+00 -8.399074112502263878e-02 3.272757211454955378e-02 6.098754395746084356e-01 1.945003544555513886e-01 6.895107319478007701e-01 -2.083776266474808014e-01 -2.427640745204016348e-01 3.928758755927784230e-01 3.117159190461294416e-01 1.358620788767932019e+00
-2.343622236164873140e-01 5.324908909070548424e-02 2.325588518605642141e-01 -7.188171941986046809e-01 -1.128613499682643129e+00 6.866902317820642448e-03 -3.038581135707201300e-02 1.498150957677952255e-01 2.755461540219280581e-01 -9.220207328483386311e-01 -1.038262877782811060e-02 -1.794990988065085391e+00 1.905657438688330707e+00 9.349667514759747444e-01 1.280567239058332474e+00
-1.447448803376835125e-01 6.411251415932003872e-02 -3.397049480381152398e-01 -1.127863251780763632e+00 1.712691004377609572e+00 -9.906085091667116149e-01 -1.061747334039728069e-01 3.932625695079350336e-01 -3.625162894879311315e-01 -1.681043809810591483e-01 -2.418677879590745428e-01 5.938322700812965343e-02 1.545747219362651581e+00 -1.927266018080232790e+00 1.632620167129233746e+00
6.615998644918574811e-01 8.125981819335559297e-01 -1.630645045682270478e-02 2.350363668648520754e-01 -4.500926910788937696e-01 4.845207908229950955e-01 -1.273071959128382336e+00 3.571262288248042583e-03 2.270798310281260945e-01 4.479093102760282608e-01 -1.139577711995101605e+00 -8.411621095919580293e-01 -7.144375770770770850e-02 7.739102784751499264e-01 1.458674239770277048e-01
4.171614875941288131e-02 6.538551875554565740e-01 3.738075461222508528e-02 -3.938415819394061601e-02 2.023267924724174993e-01 9.533290560189623675e-02 1.860717640787805105e-01 2.119344907580368975e+00 -1.098237458517576481e+00 3.536192441155383559e-02 6.205408896999579926e-02 1.005800129293668022e-01 -2.230838224979640183e-01 -3.038623816019644597e+00 8.633676991374460430e-01
2.293850821207417678e-01 -1.242562220599032541e+00 -8.002337468405503751e-01 -1.314542824646399266e+00 5.498391523640201450e-01 -5.806234847107814012e-01 6.280690797503468703e-01 2.317448406003343175e-01 -4.600557158211264763e-01 1.432829510813135865e-01 -4.354620856612935742e-01 1.101604575214977233e+00 3.138874727744622728e-01 8.966501153137694802e-01 7.396097054477492883e-01
-7.295916590979079075e-02 4.258492451693556280e-01 -1.275884231764009072e-02 -5.424451738985459626e-01 -2.207004098693060357e+00 3.569709341939834024e-01 6.181909014123706386e-02 5.047229767867675992e-02 -2.525265532162099813e-01 5.734151398934076438e-01 9.162635186540656340e-01 1.274164163750446832e+00 -1.988491183391674633e-02 8.137052989539442782e-01 -1.365020778752026320e+00
-9.573374058442888357e-01 -1.113279954661294369e+00 5.623280288499351576e-01 -3.451104353201978059e-01 3.466793224679939889e-01 -1.979502092526179702e+00 9.280998491581540222e-01 -6.674810058584077499e-01 4.254784920937866866e-01 -1.659348841352537574e-01 4.904153019259738233e-01 7.494832558000388278e-01 5.398478454870353493e-01 9.442931710759682185e-01 2.426771712336177333e-01
1.380975502296658830e-01 -1.055905787661830519e-01 2.945409499421000055e-01 1.918109805509383703e-01 -1.080638257392264823e+00 3.019560114534803885e-01 -1.823411962387831320e+00 6.231433603177870539e-01 1.007877580646370785e-01 1.580703937916302093e-01 7.159905233852856266e-02 -3.684215992241788862e-01 1.335207809178843297e+00 4.916314337203159801e-01 -3.290122442192772723e-01
3.191366369844603201e-01 -4.477421885706747012e-02 -8.728972358870232817e-01 -8.818955827238919021e-01 3.523588893468564409e-01 1.414374132335781964e-01 4.981286114038313007e-01 1.497973037339329627e+00 3.097649659688633816e-01 4.834116169200791679e-01 -7.278823897176146529e-01 1.164178027023148765e+00 -4.187787114813196765e-01 -1.076959522991958629e+00 -7.414953525047696115e-01
-4.534793481603051624e-01 -1.450368033903888243e+00 1.277889692228252327e-01 -8.995189522189007691e-01 9.200152723840956392e-01 -6.325222304222299918e-01 7.651582433209408451e-01 3.001433837261838766e-01 2.836235317071404347e-02 -1.231213885474576886e-01 3.980376222953607157e-01 9.341496548919535625e-01 7.103988882344709488e-01 -1.667360398796872423e-01 -4.570351838295975133e-01
-1.222641827541517956e-01 1.866878003957454443e-02 2.032261643575356824e-01 -4.364519603776186307e-01 5.425228212139562300e-01 9.052494269403169036e-02 5.615957786701705201e-01 1.184171953631019347e+00 2.682570765653526368e-01 -1.033917713443618103e-01 1.017200914922573363e+00 -1.227787633404512357e+00 1.016295372389872664e-01 -2.763056578951810671e+00 6.652122644306539545e-01
-4.995668865111357881e-01 -8.865677913849462008e-03 -1.962060242914216157e-01 -4.981563793179515365e-01 -1.113868223064138796e+00 3.303970403808685619e-02 7.556677873393849443e-02 -3.710770345670893339e-02 -1.100925803980925682e-01 -9.888766140786164893e-01 -5.100317905900610960e-01 -1.520453220702229657e+00 1.911237760985244449e+00 1.668685031144536479e+00 1.793722919986926012e+00
-1.032549886562877939e-01 -4.832064428879680462e-01 3.215143931861678128e-01 1.552574526691819390e+00 9.585535376386312700e-01 -1.952860321589659387e+00 -2.677891357903626202e-01 -9.026680393683940429e-02 -4.513818422029596822e-01 4.047430593347781658e-01 -4.214963675206847421e-02 -2.195773520093299569e-01 -1.586381447912637022e+00 -3.430278417611762332e-01 2.302510810868524160e+00
-4.700120556951450368e-01 -1.709629334735531664e-02 1.074209985273418155e+00 2.001567814059802553e-01 2.613572641270930919e-01 5.179883264267871601e-01 3.862943657256384666e-01 3.116130749197580374e-01 1.586164961026625270e-02 -2.929242402755410923e-01 -1.116991599182039385e+00 6.465460554942388249e-01 1.760573172733621294e-01 5.613834055492136210e-01 -2.254462035027790634e+00
3.264056598363932471e-01 2.106731075480912652e-01 1.273621660983837722e-01 1.123950032772330632e+00 -1.972783285750333793e+00 1.638142382494748028e-01 4.622097860479761344e-01 -1.168422404118497904e-01 9.404324025719844327e-02 4.908842711422274907e-01 7.571364014639689888e-01 -7.923111495655268607e-03 -2.403653381169142733e+00 1.121172212919038014e+00 -3.772631087683310236e-01
-8.678090227347964869e-02 1.075543873592455825e-02 4.530443175057539684e-01 -2.622556075709476242e-01 4.421263850501625514e-01 2.037100459721133405e-01 3.314964440917792521e-01 9.253276857318120108e-01 3.707499902452280893e-01 -1.104504779578651674e-01 1.276922957440360440e+00 -1.482641549200507836e+00 1.288580339164562549e-01 -2.655640516942534557e+00 4.555454866591073237e-01
1.077302508153407390e-01 -8.144858858731035545e-01 1.051727230807359081e+00 1.938416378261423600e-01 8.953733054848681538e-01 2.882582022620691076e-01 4.003773261703108544e-02 -6.381503752379068528e-01 -1.187583807523391544e+00 -1.397169338435104713e+00 7.012323912509849100e-02 3.706142359984178070e-01 1.054851121145891524e+00 4.877336413308386298e-01 -5.227340686381969359e-01
