
5 atoms
2 atom types
   0.0000000000   10.0000000000 xlo xhi
   0.0000000000   10.0000000000 ylo yhi
   0.0000000000   10.0000000000 zlo zhi
   0.0000000000    0.0000000000    0.0000000000 xy xz yz

Atoms # atomic

     1      1    5.4496299873    3.9550744251    3.5270009200
     2      1    3.9603647891    4.7050135974    4.3392105487
     3      1    5.6214744401    5.5181896348    4.3425348330
     4      1    5.3847901568    4.0156612284    5.2643929053
     5      2    5.0882760641    4.5712113228    4.3600141221
