
5 atoms
2 atom types
   0.0000000000   10.0000000000 xlo xhi
   0.0000000000   10.0000000000 ylo yhi
   0.0000000000   10.0000000000 zlo zhi
   0.0000000000    0.0000000000    0.0000000000 xy xz yz

Atoms # atomic

     1      1    5.2424356872    4.0326644991    3.6817915620
     2      1    3.7872484434    4.8132806050    4.5295133711
     3      1    5.4080770201    5.6093821870    4.5272000832
     4      1    5.1613289704    4.1631756740    5.4910854671
     5      2    4.8858908435    4.6760902574    4.5354621793
