
5 atoms
2 atom types
   0.0000000000   10.0000000000 xlo xhi
   0.0000000000   10.0000000000 ylo yhi
   0.0000000000   10.0000000000 zlo zhi
   0.0000000000    0.0000000000    0.0000000000 xy xz yz

Atoms # atomic

     1      1    5.4081799516    4.1126367571    3.6856555564
     2      1    4.0096372817    4.9021616099    4.5293492812
     3      1    5.6453720889    5.7368124663    4.5314116479
     4      1    5.3454390525    4.2292137991    5.4868959071
     5      2    5.0833420901    4.7654055560    4.5382160755
