5.312420000000000364e+00 3.875259999999999927e+00 3.541030000000000122e+00 3.798319999999999919e+00 4.595690000000000275e+00 4.343869999999999898e+00 5.448249999999999815e+00 5.404359999999999609e+00 4.351169999999999760e+00 5.193050000000000388e+00 3.905289999999999928e+00 5.277020000000000266e+00 4.913920000000000066e+00 4.469640000000000057e+00 4.363139999999999574e+00
5.186090000000000089e+00 3.986720000000000041e+00 3.689519999999999911e+00 3.905100000000000016e+00 4.728570000000000384e+00 4.528129999999999988e+00 5.433080000000000354e+00 5.585370000000000168e+00 4.488809999999999967e+00 5.281170000000000364e+00 4.057739999999999903e+00 5.443010000000000126e+00 4.969850000000000101e+00 4.565059999999999896e+00 4.545480000000000409e+00
5.451850000000000307e+00 4.173199999999999577e+00 3.422480000000000189e+00 4.100329999999999586e+00 4.899339999999999584e+00 4.344630000000000436e+00 5.675200000000000244e+00 5.661870000000000402e+00 4.429929999999999701e+00 5.443859999999999921e+00 4.093420000000000059e+00 5.220550000000000246e+00 5.168669999999999654e+00 4.696839999999999904e+00 4.369620000000000282e+00
5.242440000000000211e+00 4.032659999999999911e+00 3.681789999999999896e+00 3.787249999999999783e+00 4.813279999999999781e+00 4.529510000000000147e+00 5.408079999999999998e+00 5.609379999999999811e+00 4.527199999999999669e+00 5.161330000000000418e+00 4.163179999999999659e+00 5.491089999999999804e+00 4.885889999999999844e+00 4.676090000000000302e+00 4.535459999999999603e+00
5.396700000000000053e+00 4.158520000000000216e+00 3.567559999999999842e+00 3.997180000000000177e+00 4.791439999999999699e+00 4.389809999999999768e+00 5.428390000000000271e+00 5.718099999999999739e+00 4.367969999999999686e+00 5.398019999999999818e+00 4.243879999999999875e+00 5.386409999999999698e+00 5.085840000000000138e+00 4.705910000000000259e+00 4.437739999999999796e+00
5.480290000000000106e+00 4.076249999999999929e+00 3.548789999999999889e+00 4.054400000000000226e+00 4.850089999999999790e+00 4.377539999999999765e+00 5.674669999999999881e+00 5.619600000000000151e+00 4.391989999999999839e+00 5.390570000000000306e+00 4.148439999999999905e+00 5.325179999999999580e+00 5.124279999999999724e+00 4.709869999999999557e+00 4.381289999999999907e+00
4.867969999999999686e+00 4.216319999999999624e+00 3.510520000000000085e+00 3.613350000000000062e+00 4.959109999999999907e+00 4.519680000000000142e+00 5.152960000000000207e+00 5.769700000000000273e+00 4.366389999999999993e+00 4.987440000000000317e+00 4.239370000000000083e+00 5.336090000000000444e+00 4.671870000000000189e+00 4.776250000000000107e+00 4.445829999999999949e+00
5.307450000000000223e+00 4.192969999999999864e+00 3.513939999999999841e+00 3.919080000000000119e+00 4.946010000000000240e+00 4.380969999999999587e+00 5.513499999999999623e+00 5.707779999999999632e+00 4.393530000000000157e+00 5.218420000000000059e+00 4.201520000000000366e+00 5.290399999999999991e+00 4.981860000000000177e+00 4.754380000000000273e+00 4.390990000000000393e+00
5.385180000000000078e+00 3.926940000000000097e+00 3.548049999999999926e+00 4.032930000000000348e+00 4.714229999999999698e+00 4.351200000000000401e+00 5.601409999999999556e+00 5.567249999999999588e+00 4.393279999999999852e+00 5.385609999999999786e+00 4.059059999999999668e+00 5.296109999999999651e+00 5.105579999999999785e+00 4.565800000000000303e+00 4.388840000000000074e+00
5.438640000000000363e+00 4.129030000000000200e+00 3.509780000000000122e+00 4.022680000000000256e+00 4.902940000000000076e+00 4.368059999999999832e+00 5.700929999999999609e+00 5.684499999999999886e+00 4.430399999999999672e+00 5.347940000000000360e+00 4.157230000000000203e+00 5.288540000000000241e+00 5.131750000000000256e+00 4.694939999999999891e+00 4.385180000000000078e+00
5.538680000000000270e+00 3.959340000000000082e+00 3.596029999999999838e+00 4.063180000000000014e+00 4.705350000000000144e+00 4.417849999999999611e+00 5.762719999999999843e+00 5.524280000000000079e+00 4.426639999999999908e+00 5.424190000000000289e+00 4.004699999999999704e+00 5.357289999999999885e+00 5.183559999999999945e+00 4.561869999999999870e+00 4.431680000000000064e+00
5.416699999999999626e+00 4.206909999999999705e+00 3.488049999999999873e+00 3.937549999999999883e+00 4.888779999999999681e+00 4.293639999999999901e+00 5.559619999999999784e+00 5.712340000000000195e+00 4.450800000000000090e+00 5.211339999999999861e+00 4.187969999999999970e+00 5.269720000000000404e+00 5.047229999999999883e+00 4.748770000000000380e+00 4.369539999999999758e+00
5.269510000000000360e+00 4.207119999999999749e+00 3.493310000000000137e+00 3.889060000000000183e+00 4.994589999999999641e+00 4.361830000000000318e+00 5.472179999999999822e+00 5.741349999999999731e+00 4.423390000000000377e+00 5.236939999999999706e+00 4.131719999999999615e+00 5.307489999999999597e+00 4.989419999999999966e+00 4.752180000000000071e+00 4.390399999999999636e+00
5.396779999999999688e+00 4.030459999999999710e+00 3.522359999999999935e+00 4.025120000000000253e+00 4.910020000000000273e+00 4.359479999999999578e+00 5.649700000000000166e+00 5.635030000000000427e+00 4.209259999999999557e+00 5.344769999999999577e+00 4.230599999999999916e+00 5.342360000000000220e+00 5.117140000000000022e+00 4.688100000000000378e+00 4.365700000000000358e+00
5.411679999999999602e+00 4.138810000000000322e+00 3.554320000000000146e+00 3.965450000000000141e+00 4.795849999999999724e+00 4.391429999999999723e+00 5.461820000000000341e+00 5.722380000000000244e+00 4.360019999999999563e+00 5.390320000000000000e+00 4.217839999999999812e+00 5.387100000000000222e+00 5.085090000000000110e+00 4.708999999999999631e+00 4.439309999999999867e+00
5.414570000000000327e+00 4.107969999999999899e+00 3.567639999999999922e+00 4.003849999999999909e+00 4.848259999999999792e+00 4.392380000000000173e+00 5.591029999999999944e+00 5.662420000000000009e+00 4.393760000000000332e+00 5.409390000000000143e+00 4.182450000000000223e+00 5.301590000000000025e+00 5.092780000000000307e+00 4.729479999999999684e+00 4.421400000000000219e+00
5.509269999999999889e+00 3.957520000000000149e+00 3.570899999999999963e+00 4.117829999999999657e+00 4.721009999999999707e+00 4.400290000000000035e+00 5.703319999999999723e+00 5.522800000000000153e+00 4.429219999999999935e+00 5.495910000000000295e+00 3.985630000000000006e+00 5.307400000000000340e+00 5.180430000000000312e+00 4.562429999999999986e+00 4.439169999999999838e+00
5.384780000000000122e+00 4.171619999999999884e+00 3.519649999999999945e+00 3.994510000000000005e+00 4.821150000000000269e+00 4.435330000000000439e+00 5.477750000000000341e+00 5.748450000000000060e+00 4.417480000000000295e+00 5.452130000000000365e+00 4.229129999999999612e+00 5.324810000000000265e+00 5.101910000000000167e+00 4.715390000000000192e+00 4.417910000000000004e+00
5.415499999999999758e+00 4.019379999999999953e+00 3.493900000000000006e+00 4.126389999999999780e+00 4.698310000000000208e+00 4.453909999999999592e+00 5.638080000000000425e+00 5.547930000000000028e+00 4.447169999999999845e+00 5.486900000000000333e+00 4.016840000000000188e+00 5.321589999999999598e+00 5.193710000000000271e+00 4.554479999999999862e+00 4.438439999999999941e+00
5.465329999999999799e+00 4.073680000000000412e+00 3.494790000000000063e+00 4.081240000000000201e+00 4.840119999999999756e+00 4.344389999999999752e+00 5.678209999999999980e+00 5.647680000000000256e+00 4.366349999999999731e+00 5.432820000000000427e+00 4.119930000000000092e+00 5.273049999999999571e+00 5.169800000000000395e+00 4.709030000000000271e+00 4.364550000000000374e+00
5.379839999999999733e+00 3.934969999999999857e+00 3.521720000000000184e+00 4.031229999999999869e+00 4.727149999999999963e+00 4.339979999999999727e+00 5.585899999999999643e+00 5.550430000000000419e+00 4.393880000000000230e+00 5.381879999999999775e+00 4.071340000000000181e+00 5.307140000000000413e+00 5.107770000000000366e+00 4.564429999999999765e+00 4.391000000000000014e+00
5.468490000000000073e+00 4.095690000000000275e+00 3.545809999999999906e+00 4.079920000000000435e+00 4.860689999999999955e+00 4.380110000000000170e+00 5.674089999999999634e+00 5.618360000000000021e+00 4.407140000000000057e+00 5.379909999999999748e+00 4.143430000000000391e+00 5.323290000000000077e+00 5.124069999999999681e+00 4.707889999999999908e+00 4.380219999999999558e+00
5.251920000000000144e+00 4.227960000000000385e+00 3.491880000000000095e+00 3.887830000000000119e+00 4.989630000000000010e+00 4.357249999999999623e+00 5.470469999999999722e+00 5.731239999999999668e+00 4.432780000000000165e+00 5.233299999999999841e+00 4.134070000000000356e+00 5.297869999999999635e+00 4.991430000000000256e+00 4.751500000000000057e+00 4.390920000000000378e+00
5.430030000000000356e+00 4.106519999999999726e+00 3.609799999999999898e+00 4.012520000000000309e+00 4.797710000000000363e+00 4.421809999999999796e+00 5.554929999999999701e+00 5.706819999999999560e+00 4.378820000000000157e+00 5.348919999999999675e+00 4.177039999999999864e+00 5.336070000000000313e+00 5.075339999999999741e+00 4.716219999999999857e+00 4.434849999999999959e+00
5.292370000000000019e+00 3.840700000000000003e+00 3.543200000000000127e+00 3.840069999999999872e+00 4.590259999999999785e+00 4.344710000000000072e+00 5.429039999999999644e+00 5.446460000000000079e+00 4.349669999999999703e+00 5.170969999999999622e+00 3.937580000000000080e+00 5.276150000000000340e+00 4.915549999999999642e+00 4.466779999999999973e+00 4.363089999999999691e+00
5.396180000000000199e+00 4.024090000000000167e+00 3.552680000000000060e+00 4.053029999999999688e+00 4.880119999999999791e+00 4.347610000000000419e+00 5.641420000000000101e+00 5.655160000000000409e+00 4.263659999999999783e+00 5.360450000000000159e+00 4.181600000000000428e+00 5.304479999999999862e+00 5.114250000000000185e+00 4.693520000000000358e+00 4.362790000000000390e+00
5.345729999999999649e+00 4.204290000000000305e+00 3.444809999999999928e+00 3.922750000000000181e+00 4.903159999999999741e+00 4.242740000000000400e+00 5.535610000000000142e+00 5.740359999999999907e+00 4.390799999999999592e+00 5.258149999999999658e+00 4.188939999999999664e+00 5.317779999999999951e+00 5.052469999999999573e+00 4.745379999999999932e+00 4.378379999999999939e+00
5.225889999999999702e+00 3.838550000000000129e+00 3.515439999999999898e+00 3.847459999999999880e+00 4.583409999999999762e+00 4.291859999999999786e+00 5.366469999999999629e+00 5.470810000000000173e+00 4.288470000000000226e+00 5.138770000000000060e+00 4.009210000000000385e+00 5.327510000000000190e+00 4.928359999999999630e+00 4.459539999999999615e+00 4.370619999999999727e+00
5.382620000000000182e+00 4.242270000000000429e+00 3.527979999999999894e+00 4.045209999999999972e+00 4.962010000000000254e+00 4.474289999999999878e+00 5.639789999999999637e+00 5.716199999999999726e+00 4.523220000000000240e+00 5.325969999999999871e+00 4.114160000000000039e+00 5.352689999999999948e+00 5.123709999999999987e+00 4.752329999999999721e+00 4.467939999999999579e+00
5.381389999999999674e+00 4.056029999999999802e+00 3.422260000000000080e+00 4.018390000000000128e+00 4.726119999999999877e+00 4.343449999999999811e+00 5.584850000000000314e+00 5.532090000000000174e+00 4.423750000000000071e+00 5.352400000000000269e+00 3.976339999999999986e+00 5.239819999999999922e+00 5.094870000000000232e+00 4.563159999999999883e+00 4.363669999999999938e+00
5.396139999999999937e+00 4.167670000000000208e+00 3.520350000000000090e+00 4.014149999999999885e+00 4.835519999999999818e+00 4.401500000000000412e+00 5.519379999999999953e+00 5.707609999999999850e+00 4.392299999999999649e+00 5.454469999999999708e+00 4.213180000000000369e+00 5.325660000000000061e+00 5.095670000000000144e+00 4.719249999999999723e+00 4.422699999999999854e+00
5.423230000000000217e+00 3.960770000000000124e+00 3.510619999999999852e+00 4.026030000000000442e+00 4.700840000000000352e+00 4.329909999999999926e+00 5.603139999999999787e+00 5.536360000000000170e+00 4.346370000000000289e+00 5.372539999999999871e+00 3.992399999999999949e+00 5.260860000000000092e+00 5.087550000000000239e+00 4.571509999999999962e+00 4.362129999999999619e+00
5.486180000000000057e+00 3.964850000000000207e+00 3.557259999999999867e+00 4.082709999999999617e+00 4.731250000000000178e+00 4.396480000000000388e+00 5.701120000000000410e+00 5.569659999999999833e+00 4.431409999999999627e+00 5.504590000000000316e+00 3.986089999999999911e+00 5.302529999999999966e+00 5.184739999999999682e+00 4.557030000000000136e+00 4.440839999999999677e+00
5.381929999999999659e+00 4.168300000000000338e+00 3.586650000000000116e+00 3.999019999999999797e+00 4.972900000000000098e+00 4.356830000000000425e+00 5.573870000000000324e+00 5.710619999999999585e+00 4.455490000000000173e+00 5.272149999999999892e+00 4.209310000000000329e+00 5.405319999999999681e+00 5.070199999999999818e+00 4.751500000000000057e+00 4.464800000000000324e+00
5.302059999999999995e+00 4.182640000000000136e+00 3.489520000000000177e+00 3.934200000000000141e+00 4.966090000000000337e+00 4.376529999999999809e+00 5.495989999999999931e+00 5.733959999999999724e+00 4.403710000000000235e+00 5.214409999999999989e+00 4.197569999999999801e+00 5.258759999999999657e+00 4.982840000000000380e+00 4.751719999999999722e+00 4.395179999999999865e+00
5.387249999999999872e+00 3.981809999999999850e+00 3.503740000000000077e+00 4.011630000000000251e+00 4.749719999999999942e+00 4.332489999999999952e+00 5.581559999999999633e+00 5.539880000000000138e+00 4.363269999999999982e+00 5.374769999999999825e+00 4.057489999999999597e+00 5.353780000000000427e+00 5.109740000000000393e+00 4.560679999999999623e+00 4.391790000000000305e+00
5.243129999999999846e+00 3.824609999999999843e+00 3.512950000000000017e+00 3.832279999999999909e+00 4.572770000000000223e+00 4.271119999999999806e+00 5.377320000000000100e+00 5.433900000000000396e+00 4.277639999999999887e+00 5.175089999999999968e+00 4.026080000000000325e+00 5.359370000000000189e+00 4.924260000000000304e+00 4.463250000000000384e+00 4.370800000000000018e+00
5.421039999999999637e+00 4.117189999999999905e+00 3.554790000000000116e+00 3.951309999999999878e+00 4.795460000000000278e+00 4.396810000000000329e+00 5.503339999999999677e+00 5.742650000000000254e+00 4.361469999999999736e+00 5.376509999999999678e+00 4.202390000000000292e+00 5.369539999999999758e+00 5.083179999999999588e+00 4.710429999999999673e+00 4.440170000000000172e+00
5.273069999999999702e+00 3.988999999999999879e+00 3.723479999999999901e+00 3.906480000000000175e+00 4.681739999999999569e+00 4.557339999999999947e+00 5.510180000000000078e+00 5.555869999999999642e+00 4.515780000000000349e+00 5.203529999999999767e+00 4.054289999999999949e+00 5.456409999999999982e+00 4.962539999999999729e+00 4.571509999999999962e+00 4.536859999999999893e+00
5.449629999999999974e+00 3.955070000000000086e+00 3.527000000000000135e+00 3.960360000000000102e+00 4.705009999999999692e+00 4.339209999999999567e+00 5.621470000000000411e+00 5.518189999999999706e+00 4.342530000000000001e+00 5.384789999999999743e+00 4.015659999999999563e+00 5.264389999999999681e+00 5.088280000000000136e+00 4.571209999999999773e+00 4.360009999999999941e+00
5.020609999999999573e+00 4.150689999999999991e+00 3.619159999999999933e+00 3.563159999999999883e+00 4.925169999999999604e+00 4.423930000000000362e+00 5.176440000000000374e+00 5.752379999999999605e+00 4.422909999999999897e+00 4.944950000000000401e+00 4.217299999999999827e+00 5.347190000000000332e+00 4.664920000000000400e+00 4.787819999999999965e+00 4.439129999999999576e+00
5.399720000000000297e+00 4.205490000000000173e+00 3.524700000000000166e+00 4.001249999999999751e+00 4.959069999999999645e+00 4.483690000000000175e+00 5.641189999999999927e+00 5.737300000000000288e+00 4.519330000000000069e+00 5.324489999999999945e+00 4.122169999999999668e+00 5.363470000000000404e+00 5.125949999999999562e+00 4.753210000000000157e+00 4.466849999999999987e+00
4.981200000000000294e+00 4.173280000000000101e+00 3.631320000000000103e+00 3.546170000000000044e+00 4.920119999999999827e+00 4.420169999999999710e+00 5.180279999999999774e+00 5.739930000000000199e+00 4.419340000000000046e+00 4.963940000000000019e+00 4.219299999999999606e+00 5.338630000000000209e+00 4.667720000000000091e+00 4.787230000000000096e+00 4.439440000000000275e+00
5.358170000000000321e+00 4.071469999999999700e+00 3.586840000000000028e+00 3.929079999999999906e+00 4.857339999999999769e+00 4.417559999999999931e+00 5.525109999999999744e+00 5.670609999999999928e+00 4.398830000000000240e+00 5.264190000000000147e+00 4.136589999999999989e+00 5.362300000000000288e+00 5.024890000000000079e+00 4.683650000000000091e+00 4.445610000000000284e+00
5.365859999999999630e+00 4.054149999999999920e+00 3.598479999999999901e+00 3.926109999999999989e+00 4.826279999999999681e+00 4.424479999999999968e+00 5.563600000000000101e+00 5.650330000000000297e+00 4.430640000000000356e+00 5.287289999999999601e+00 4.143469999999999764e+00 5.367029999999999745e+00 5.019359999999999822e+00 4.688790000000000013e+00 4.441029999999999589e+00
5.399989999999999846e+00 4.141029999999999767e+00 3.591810000000000169e+00 4.004439999999999777e+00 4.999410000000000132e+00 4.340869999999999784e+00 5.580280000000000129e+00 5.751050000000000217e+00 4.465489999999999959e+00 5.262400000000000411e+00 4.176770000000000316e+00 5.370840000000000281e+00 5.068529999999999980e+00 4.750910000000000188e+00 4.467730000000000423e+00
5.308699999999999974e+00 3.981539999999999857e+00 3.713529999999999998e+00 3.872850000000000126e+00 4.698509999999999742e+00 4.547019999999999840e+00 5.514809999999999768e+00 5.540079999999999671e+00 4.521779999999999688e+00 5.212950000000000195e+00 4.053950000000000387e+00 5.462439999999999962e+00 4.961210000000000342e+00 4.572079999999999700e+00 4.537550000000000416e+00
5.371509999999999785e+00 3.995629999999999793e+00 3.564119999999999955e+00 4.068329999999999558e+00 4.946740000000000137e+00 4.345209999999999795e+00 5.654740000000000322e+00 5.627049999999999663e+00 4.185629999999999740e+00 5.378949999999999676e+00 4.285630000000000273e+00 5.349149999999999849e+00 5.112379999999999924e+00 4.684029999999999916e+00 4.364810000000000301e+00
5.434720000000000439e+00 4.177669999999999995e+00 3.434610000000000163e+00 4.084620000000000140e+00 4.897149999999999892e+00 4.315529999999999866e+00 5.663380000000000081e+00 5.653170000000000250e+00 4.398069999999999702e+00 5.453960000000000363e+00 4.095970000000000333e+00 5.265369999999999884e+00 5.171549999999999869e+00 4.697169999999999845e+00 4.369959999999999845e+00
5.376089999999999591e+00 4.167469999999999786e+00 3.628499999999999837e+00 3.994699999999999918e+00 4.880930000000000213e+00 4.413529999999999731e+00 5.624480000000000146e+00 5.667209999999999859e+00 4.469899999999999984e+00 5.285669999999999646e+00 4.245440000000000325e+00 5.413490000000000357e+00 5.065710000000000157e+00 4.759839999999999627e+00 4.454710000000000392e+00
5.374439999999999884e+00 4.161139999999999617e+00 3.521040000000000170e+00 3.997259999999999813e+00 4.891210000000000058e+00 4.303379999999999761e+00 5.532230000000000203e+00 5.706290000000000084e+00 4.355419999999999625e+00 5.301249999999999574e+00 4.171879999999999811e+00 5.263700000000000045e+00 5.040569999999999773e+00 4.754220000000000113e+00 4.374430000000000263e+00
5.374089999999999812e+00 4.288759999999999906e+00 3.538489999999999913e+00 4.061289999999999623e+00 4.990870000000000140e+00 4.476989999999999803e+00 5.643480000000000274e+00 5.700899999999999856e+00 4.535269999999999690e+00 5.326600000000000001e+00 4.103189999999999671e+00 5.305950000000000166e+00 5.122720000000000162e+00 4.748240000000000016e+00 4.469719999999999693e+00
5.247869999999999813e+00 3.960409999999999986e+00 3.677529999999999966e+00 3.892900000000000027e+00 4.673300000000000232e+00 4.555010000000000225e+00 5.487589999999999968e+00 5.539889999999999759e+00 4.519940000000000069e+00 5.211540000000000283e+00 4.051700000000000301e+00 5.476779999999999760e+00 4.966980000000000395e+00 4.576139999999999652e+00 4.538840000000000430e+00
5.461509999999999643e+00 4.233509999999999884e+00 3.596000000000000085e+00 4.049450000000000216e+00 4.932080000000000020e+00 4.523799999999999599e+00 5.669100000000000250e+00 5.795689999999999564e+00 4.625329999999999941e+00 5.463440000000000296e+00 4.164850000000000385e+00 5.427030000000000243e+00 5.158960000000000434e+00 4.777210000000000178e+00 4.539299999999999891e+00
5.344229999999999592e+00 4.212559999999999860e+00 3.448539999999999939e+00 3.962200000000000166e+00 4.898439999999999905e+00 4.245490000000000208e+00 5.528030000000000221e+00 5.729199999999999626e+00 4.410289999999999822e+00 5.248910000000000409e+00 4.184429999999999872e+00 5.335309999999999775e+00 5.050709999999999589e+00 4.746380000000000265e+00 4.374749999999999694e+00
5.436650000000000205e+00 4.077149999999999608e+00 3.593370000000000175e+00 3.949689999999999923e+00 4.853970000000000340e+00 4.418180000000000440e+00 5.629959999999999631e+00 5.682210000000000427e+00 4.426840000000000330e+00 5.340080000000000382e+00 4.171299999999999564e+00 5.355780000000000207e+00 5.074499999999999567e+00 4.716510000000000424e+00 4.430880000000000152e+00
5.426700000000000301e+00 3.996500000000000163e+00 3.533360000000000056e+00 4.095390000000000086e+00 4.724120000000000097e+00 4.406880000000000130e+00 5.646639999999999660e+00 5.542740000000000222e+00 4.449410000000000309e+00 5.513399999999999856e+00 3.989860000000000184e+00 5.340670000000000250e+00 5.192440000000000389e+00 4.556910000000000238e+00 4.437289999999999957e+00
5.345220000000000304e+00 3.998060000000000169e+00 3.451499999999999790e+00 3.965079999999999938e+00 4.716669999999999696e+00 4.291540000000000354e+00 5.558840000000000003e+00 5.553810000000000358e+00 4.374769999999999825e+00 5.342010000000000147e+00 3.975220000000000198e+00 5.247760000000000424e+00 5.105349999999999611e+00 4.567059999999999675e+00 4.368970000000000020e+00
5.480400000000000382e+00 4.065059999999999896e+00 3.553290000000000060e+00 4.009459999999999802e+00 4.846339999999999648e+00 4.366340000000000110e+00 5.690540000000000376e+00 5.663979999999999571e+00 4.373910000000000409e+00 5.392199999999999882e+00 4.170770000000000088e+00 5.301610000000000156e+00 5.126549999999999940e+00 4.705560000000000187e+00 4.385309999999999597e+00
5.361939999999999706e+00 4.188509999999999955e+00 3.506120000000000125e+00 3.973980000000000068e+00 4.895559999999999690e+00 4.282770000000000188e+00 5.534259999999999735e+00 5.717939999999999579e+00 4.362470000000000070e+00 5.278730000000000366e+00 4.192590000000000039e+00 5.258000000000000007e+00 5.045259999999999856e+00 4.748879999999999768e+00 4.377279999999999838e+00
5.411260000000000403e+00 4.192820000000000213e+00 3.590949999999999864e+00 3.968620000000000037e+00 4.995479999999999698e+00 4.420259999999999856e+00 5.623370000000000424e+00 5.832629999999999981e+00 4.432599999999999874e+00 5.338759999999999728e+00 4.318030000000000257e+00 5.359670000000000378e+00 5.069239999999999746e+00 4.858270000000000088e+00 4.427010000000000112e+00
5.418560000000000265e+00 4.157359999999999722e+00 3.695409999999999862e+00 3.994310000000000027e+00 4.848080000000000389e+00 4.557409999999999961e+00 5.569040000000000212e+00 5.738559999999999661e+00 4.525470000000000326e+00 5.394519999999999982e+00 4.255530000000000257e+00 5.447669999999999568e+00 5.086020000000000429e+00 4.763849999999999696e+00 4.538829999999999920e+00
5.404410000000000380e+00 4.017229999999999634e+00 3.556179999999999897e+00 4.037659999999999805e+00 4.868009999999999948e+00 4.345060000000000144e+00 5.637290000000000134e+00 5.650420000000000442e+00 4.290309999999999846e+00 5.366500000000000270e+00 4.163170000000000037e+00 5.281039999999999957e+00 5.114690000000000403e+00 4.697029999999999816e+00 4.362440000000000317e+00
5.104040000000000354e+00 3.984680000000000000e+00 3.675940000000000207e+00 3.821800000000000086e+00 4.907239999999999824e+00 4.589159999999999684e+00 5.434110000000000440e+00 5.620420000000000194e+00 4.365789999999999615e+00 5.197980000000000267e+00 4.218689999999999607e+00 5.481250000000000178e+00 4.889319999999999666e+00 4.666719999999999757e+00 4.545239999999999725e+00
5.444919999999999760e+00 3.978180000000000049e+00 3.518839999999999968e+00 4.026229999999999976e+00 4.749450000000000394e+00 4.354490000000000194e+00 5.600939999999999586e+00 5.518399999999999750e+00 4.333660000000000068e+00 5.357730000000000103e+00 4.006429999999999936e+00 5.318760000000000154e+00 5.103530000000000122e+00 4.567050000000000054e+00 4.394079999999999764e+00
5.378250000000000419e+00 4.211059999999999803e+00 3.571330000000000116e+00 3.985459999999999781e+00 5.085770000000000124e+00 4.307010000000000005e+00 5.619880000000000209e+00 5.832189999999999763e+00 4.379310000000000258e+00 5.294599999999999973e+00 4.352409999999999890e+00 5.403010000000000090e+00 5.074550000000000338e+00 4.846409999999999663e+00 4.438900000000000290e+00
5.416459999999999830e+00 4.011320000000000441e+00 3.511179999999999968e+00 4.131610000000000227e+00 4.706769999999999676e+00 4.431160000000000210e+00 5.630959999999999965e+00 5.521670000000000300e+00 4.450380000000000003e+00 5.499880000000000102e+00 4.003409999999999691e+00 5.342649999999999899e+00 5.192709999999999937e+00 4.557750000000000412e+00 4.436869999999999870e+00
5.416809999999999903e+00 4.152849999999999930e+00 3.463820000000000121e+00 4.069709999999999717e+00 4.938719999999999999e+00 4.342780000000000307e+00 5.653340000000000032e+00 5.641530000000000378e+00 4.434459999999999624e+00 5.345959999999999823e+00 4.118000000000000327e+00 5.315959999999999575e+00 5.133779999999999788e+00 4.696819999999999773e+00 4.388490000000000002e+00
5.219170000000000087e+00 3.844050000000000189e+00 3.539359999999999840e+00 3.819719999999999782e+00 4.590429999999999566e+00 4.300970000000000404e+00 5.360120000000000218e+00 5.474789999999999601e+00 4.300010000000000332e+00 5.133580000000000254e+00 3.983200000000000074e+00 5.325420000000000265e+00 4.932190000000000296e+00 4.460329999999999906e+00 4.367090000000000138e+00
5.451900000000000190e+00 4.112829999999999764e+00 3.532950000000000035e+00 4.051230000000000331e+00 4.882369999999999877e+00 4.373689999999999856e+00 5.690220000000000056e+00 5.658290000000000042e+00 4.419489999999999696e+00 5.362459999999999560e+00 4.153159999999999741e+00 5.296230000000000437e+00 5.127950000000000230e+00 4.700520000000000032e+00 4.383049999999999891e+00
4.900540000000000340e+00 4.193480000000000096e+00 3.536709999999999798e+00 3.556740000000000013e+00 4.934090000000000309e+00 4.446039999999999992e+00 5.180559999999999832e+00 5.745989999999999931e+00 4.390550000000000175e+00 5.001559999999999562e+00 4.239309999999999690e+00 5.337110000000000021e+00 4.670399999999999885e+00 4.782219999999999693e+00 4.447689999999999699e+00
5.447250000000000369e+00 3.969230000000000036e+00 3.535670000000000091e+00 4.003770000000000273e+00 4.734070000000000000e+00 4.360560000000000436e+00 5.626570000000000071e+00 5.517249999999999766e+00 4.350690000000000168e+00 5.361309999999999576e+00 3.998860000000000081e+00 5.317969999999999864e+00 5.102769999999999584e+00 4.569799999999999862e+00 4.390819999999999723e+00
5.443069999999999631e+00 4.278529999999999944e+00 3.608690000000000175e+00 4.076769999999999783e+00 4.934210000000000207e+00 4.515640000000000320e+00 5.647509999999999586e+00 5.773810000000000109e+00 4.631219999999999892e+00 5.467769999999999797e+00 4.164220000000000255e+00 5.412840000000000096e+00 5.159650000000000070e+00 4.775159999999999627e+00 4.539609999999999701e+00
5.235829999999999984e+00 3.827789999999999804e+00 3.502609999999999779e+00 3.854589999999999961e+00 4.580330000000000013e+00 4.281620000000000203e+00 5.367499999999999716e+00 5.452519999999999811e+00 4.282619999999999649e+00 5.155230000000000423e+00 4.021250000000000213e+00 5.344260000000000232e+00 4.925489999999999924e+00 4.461210000000000342e+00 4.371629999999999683e+00
5.387550000000000061e+00 4.278570000000000206e+00 3.503319999999999990e+00 4.030540000000000234e+00 5.010169999999999568e+00 4.481279999999999930e+00 5.661669999999999980e+00 5.711649999999999672e+00 4.549109999999999765e+00 5.338919999999999888e+00 4.080989999999999895e+00 5.303139999999999965e+00 5.121620000000000061e+00 4.748440000000000438e+00 4.471370000000000289e+00
5.321259999999999657e+00 4.138810000000000322e+00 3.535359999999999836e+00 3.881569999999999965e+00 4.904490000000000016e+00 4.376439999999999664e+00 5.548799999999999955e+00 5.703649999999999665e+00 4.371190000000000353e+00 5.220119999999999649e+00 4.208919999999999995e+00 5.326109999999999900e+00 4.980760000000000076e+00 4.762080000000000091e+00 4.388480000000000381e+00
5.337860000000000049e+00 4.043610000000000149e+00 3.438250000000000028e+00 4.021679999999999922e+00 4.713160000000000238e+00 4.304780000000000051e+00 5.574699999999999989e+00 5.559350000000000236e+00 4.404449999999999754e+00 5.347159999999999691e+00 3.975880000000000081e+00 5.266670000000000407e+00 5.099499999999999922e+00 4.563049999999999606e+00 4.364930000000000199e+00
4.923300000000000232e+00 4.164039999999999964e+00 3.524509999999999810e+00 3.596319999999999961e+00 4.917189999999999728e+00 4.432050000000000267e+00 5.192849999999999966e+00 5.749550000000000161e+00 4.401849999999999596e+00 4.997480000000000366e+00 4.239580000000000126e+00 5.333429999999999893e+00 4.664520000000000444e+00 4.785759999999999792e+00 4.449230000000000018e+00
5.374900000000000233e+00 4.205969999999999764e+00 3.615169999999999995e+00 4.022249999999999659e+00 5.058510000000000062e+00 4.338149999999999729e+00 5.595329999999999693e+00 5.819189999999999863e+00 4.412609999999999921e+00 5.330650000000000333e+00 4.337310000000000443e+00 5.368249999999999744e+00 5.070809999999999818e+00 4.851440000000000197e+00 4.432780000000000165e+00
5.402140000000000164e+00 4.140439999999999898e+00 3.713360000000000216e+00 3.983350000000000168e+00 4.879220000000000113e+00 4.536690000000000111e+00 5.615669999999999717e+00 5.716249999999999609e+00 4.532110000000000305e+00 5.365920000000000023e+00 4.235660000000000203e+00 5.473519999999999719e+00 5.086800000000000210e+00 4.766180000000000305e+00 4.536349999999999660e+00