4.967089999999999783e+00 3.724810000000000176e+00 4.126490000000000435e+00 3.632210000000000161e+00 5.034410000000000274e+00 4.247740000000000293e+00 5.241340000000000110e+00 5.498199999999999754e+00 3.865320000000000089e+00 4.959999999999999964e+00 4.953689999999999927e+00 5.493420000000000414e+00 4.656970000000000276e+00 4.774029999999999774e+00 4.445809999999999818e+00
5.307570000000000121e+00 4.039740000000000109e+00 3.682620000000000005e+00 3.881930000000000103e+00 4.640590000000000437e+00 4.596759999999999735e+00 5.471300000000000274e+00 5.588160000000000238e+00 4.631599999999999717e+00 5.330809999999999604e+00 4.023590000000000444e+00 5.404539999999999900e+00 4.954349999999999810e+00 4.570570000000000022e+00 4.531649999999999956e+00
4.975170000000000314e+00 5.504190000000000360e+00 5.140939999999999621e+00 4.913479999999999848e+00 4.854350000000000165e+00 3.506850000000000023e+00 3.970940000000000136e+00 4.057050000000000267e+00 4.804789999999999672e+00 5.841779999999999973e+00 3.921940000000000204e+00 4.697099999999999831e+00 4.978530000000000122e+00 4.566790000000000127e+00 4.545469999999999899e+00
4.783369999999999678e+00 5.765629999999999811e+00 4.180360000000000298e+00 5.114279999999999937e+00 4.814890000000000114e+00 5.631759999999999877e+00 6.086409999999999876e+00 4.501389999999999780e+00 4.205610000000000070e+00 4.335230000000000139e+00 3.954880000000000173e+00 4.230319999999999858e+00 5.090790000000000148e+00 4.760740000000000194e+00 4.536990000000000300e+00
4.997069999999999901e+00 4.961420000000000385e+00 3.420119999999999827e+00 3.563820000000000210e+00 4.806639999999999802e+00 4.470989999999999576e+00 5.057649999999999757e+00 5.529530000000000278e+00 5.184779999999999944e+00 5.017109999999999737e+00 3.715419999999999945e+00 4.664600000000000080e+00 4.670720000000000205e+00 4.790530000000000399e+00 4.445190000000000197e+00
4.447779999999999845e+00 5.071780000000000399e+00 5.363719999999999821e+00 4.976569999999999716e+00 5.272369999999999557e+00 3.748969999999999914e+00 4.322700000000000209e+00 3.787700000000000067e+00 4.168420000000000236e+00 5.957349999999999923e+00 4.215060000000000251e+00 4.819060000000000343e+00 4.978279999999999816e+00 4.565999999999999837e+00 4.549599999999999866e+00
4.617049999999999876e+00 5.126730000000000231e+00 5.473880000000000301e+00 5.942759999999999820e+00 4.910449999999999982e+00 4.283170000000000144e+00 4.204119999999999635e+00 4.956669999999999909e+00 3.680559999999999832e+00 4.868970000000000020e+00 3.558629999999999960e+00 4.646989999999999732e+00 4.883070000000000022e+00 4.681589999999999918e+00 4.547550000000000203e+00
4.993089999999999584e+00 5.096739999999999604e+00 3.447639999999999816e+00 3.565659999999999830e+00 4.791850000000000165e+00 4.488139999999999574e+00 5.044749999999999623e+00 5.458990000000000009e+00 5.250720000000000276e+00 5.022300000000000431e+00 3.702620000000000022e+00 4.592570000000000263e+00 4.671540000000000248e+00 4.787440000000000140e+00 4.441970000000000418e+00
5.150769999999999627e+00 4.046050000000000146e+00 3.620519999999999960e+00 3.826119999999999965e+00 4.819239999999999746e+00 4.512889999999999624e+00 5.472620000000000040e+00 5.598609999999999864e+00 4.479490000000000194e+00 5.188259999999999650e+00 4.223429999999999573e+00 5.478640000000000398e+00 4.882670000000000066e+00 4.670359999999999623e+00 4.546969999999999956e+00
4.927990000000000315e+00 3.835069999999999979e+00 3.853380000000000027e+00 3.594689999999999941e+00 4.959389999999999965e+00 4.316699999999999982e+00 5.205119999999999969e+00 5.694390000000000285e+00 4.081649999999999778e+00 4.888919999999999710e+00 4.489390000000000214e+00 5.513429999999999609e+00 4.672299999999999898e+00 4.793429999999999858e+00 4.443130000000000024e+00
4.936960000000000015e+00 3.847030000000000172e+00 3.719629999999999992e+00 3.932370000000000143e+00 4.896060000000000301e+00 4.716750000000000220e+00 5.603959999999999830e+00 5.465010000000000367e+00 4.164480000000000182e+00 5.331690000000000040e+00 4.146259999999999835e+00 5.513510000000000133e+00 4.969899999999999984e+00 4.565380000000000216e+00 4.548420000000000130e+00
4.581540000000000390e+00 4.328389999999999738e+00 3.509609999999999896e+00 4.435130000000000017e+00 5.403229999999999755e+00 4.864969999999999573e+00 5.990649999999999586e+00 5.265130000000000088e+00 3.991330000000000044e+00 5.514359999999999928e+00 3.863290000000000113e+00 5.081260000000000332e+00 5.130799999999999805e+00 4.696069999999999744e+00 4.397649999999999615e+00
4.905850000000000044e+00 3.722669999999999924e+00 3.862699999999999800e+00 5.361500000000000377e+00 5.469249999999999723e+00 3.559909999999999908e+00 6.016600000000000392e+00 4.510399999999999743e+00 5.010799999999999699e+00 4.320260000000000211e+00 4.925889999999999880e+00 5.044769999999999754e+00 5.174260000000000304e+00 4.713470000000000049e+00 4.364580000000000126e+00
4.793300000000000338e+00 5.731020000000000003e+00 4.912359999999999616e+00 3.560979999999999812e+00 4.613400000000000389e+00 4.283360000000000056e+00 4.985579999999999679e+00 3.995600000000000041e+00 5.162469999999999892e+00 5.205160000000000231e+00 4.785420000000000229e+00 3.470289999999999875e+00 4.678270000000000373e+00 4.781170000000000364e+00 4.437859999999999694e+00
4.868030000000000079e+00 3.950610000000000177e+00 3.668400000000000105e+00 3.871950000000000003e+00 4.915219999999999700e+00 4.711890000000000356e+00 5.519099999999999895e+00 5.557050000000000267e+00 4.340749999999999886e+00 5.241749999999999687e+00 4.147739999999999760e+00 5.407060000000000421e+00 4.894079999999999764e+00 4.680080000000000240e+00 4.543919999999999959e+00
4.964690000000000047e+00 4.491189999999999571e+00 3.458979999999999944e+00 4.172780000000000378e+00 5.231930000000000192e+00 4.937579999999999636e+00 5.950020000000000309e+00 5.412740000000000329e+00 4.731510000000000105e+00 5.273699999999999832e+00 3.815879999999999939e+00 5.144739999999999647e+00 5.087299999999999933e+00 4.767830000000000013e+00 4.534919999999999618e+00
5.079150000000000276e+00 4.038750000000000284e+00 3.528290000000000148e+00 4.122860000000000191e+00 5.034130000000000216e+00 4.607969999999999899e+00 5.870639999999999858e+00 5.495120000000000005e+00 4.302850000000000286e+00 5.498330000000000162e+00 4.102059999999999818e+00 5.245429999999999815e+00 5.126689999999999969e+00 4.711899999999999977e+00 4.377869999999999706e+00
6.124189999999999579e+00 4.924850000000000172e+00 4.999319999999999986e+00 4.838359999999999772e+00 3.686599999999999877e+00 4.549640000000000128e+00 5.098010000000000375e+00 5.159049999999999692e+00 3.531629999999999825e+00 4.363629999999999676e+00 5.369550000000000267e+00 5.140600000000000058e+00 5.082049999999999734e+00 4.752139999999999809e+00 4.539229999999999876e+00
5.431700000000000195e+00 4.586190000000000211e+00 3.400910000000000100e+00 5.194919999999999760e+00 3.729130000000000056e+00 4.950490000000000279e+00 3.942190000000000083e+00 4.814650000000000318e+00 4.312199999999999811e+00 5.506050000000000111e+00 5.514809999999999768e+00 4.962500000000000355e+00 5.025030000000000108e+00 4.691250000000000142e+00 4.457239999999999647e+00
4.905520000000000103e+00 5.757109999999999950e+00 4.300329999999999764e+00 5.255469999999999864e+00 4.605120000000000324e+00 5.605000000000000426e+00 6.013200000000000323e+00 4.483249999999999957e+00 4.020159999999999734e+00 4.292419999999999902e+00 4.100220000000000198e+00 4.171780000000000044e+00 5.078509999999999636e+00 4.768329999999999735e+00 4.549549999999999983e+00
