-2.196736514168891290e+02
-2.196576170036980216e+02
-2.196595568335135624e+02
-2.197037348410968320e+02
-2.196769385290334355e+02
-2.196739577750323349e+02
-2.196739125134222377e+02
-2.196987620490412496e+02
-2.196593415512566594e+02
-2.196394886119440457e+02
-2.196520747998544607e+02
-2.196718909702943563e+02
-2.196594335089362744e+02
-2.196819275247097778e+02
-2.196731988947304330e+02
-2.197003482343664587e+02
-2.196826192839751570e+02
-2.196930076197977826e+02
-2.197031932713714468e+02
-2.196623685419885703e+02
