-6.289422263832404880e-01 1.167120911699267349e+00 3.510460840737251176e-01 -7.713612868030339520e-01 -2.948494823212143290e-01 1.312764135480805616e-01 2.175729199863506991e-01 -8.421545554114423515e-02 -1.985143607078284633e-01 -3.947841483576003396e-01 -2.281308979996421182e-01 -1.471843430152139365e-01 1.577103879272669928e+00 -5.594602203860677969e-01 -1.362227018059146422e-01
1.880525419526943298e-01 -3.740811114983988439e-01 -1.174067518215025752e+00 -5.549114246766593261e-01 1.483372256718377136e-01 -1.479890983040704211e-01 -8.545745263326885999e-01 -1.069016356891660857e+00 -4.583207354092403429e-01 -1.746637793610292255e-01 -1.834147860739745173e-01 1.573988216464247414e-01 1.396572842502150413e+00 1.477377472592186214e+00 1.625161396864145402e+00
4.221818236229503141e-01 -4.551289679473029537e-01 -8.615303888198205806e-02 5.017610659472703655e-02 1.017061561131340081e-01 -6.352270309457986874e-01 1.602346970090538614e+00 3.846087504944106783e-01 -3.265126177278195319e-01 5.763436263918342989e-02 -5.924747276131937107e-02 2.929689774705126482e-01 -2.134515958882050590e+00 2.719558655703012418e-02 7.570212160424331094e-01
1.199995550914527975e-01 -5.041074546904347198e-01 -1.193398100207800627e-01 -6.718343977277106693e-02 -1.047179463539214400e-01 9.503928562110579292e-02 3.862856239748969078e-01 -8.412752381309665517e-02 -3.699205523660424877e-01 9.520496750869016367e-01 1.084361728987542461e+00 2.738764796302877724e-01 -1.390825912720514923e+00 -3.913584105081678866e-01 1.205734253166053926e-01
1.335636669185812364e-01 4.899663873143623727e-01 -1.375349928584141401e-01 3.171409467122226489e-01 -2.428818310450969048e-02 4.236663785871220417e-03 5.107239315605408524e-03 -5.045116321070743926e-01 -5.470469343330356393e-01 -4.280701640783467488e-01 1.444931179163262414e+00 1.221088881233309276e-01 -2.831041688689647090e-02 -1.406096208604145081e+00 5.586616357447936609e-01
2.062137862286258783e-01 -1.635252462543710650e-01 3.229362132332529445e-01 5.699832313963928421e-01 8.194342310134650198e-01 -7.975310031995090920e-01 -8.030069387081560303e-03 -6.495496182049165235e-01 1.799417399264111872e-01 5.132934920579310667e-01 -1.822567612110321811e-01 1.440938770177523365e-01 -1.284548335190170532e+00 1.748920933215737938e-01 1.523203786862033504e-01
-4.166688642288096101e-01 6.112823472233696043e-01 8.969452779564556222e-01 -5.954217260543670509e-01 1.890341891389096807e-01 1.205106903995188522e-01 6.469507471315103508e-01 -9.833492565067838975e-02 1.029782865342854459e+00 -2.107106456542168216e-01 8.273115768728851460e-01 2.346748697606564765e-02 5.758103795965983096e-01 -1.529030420841606785e+00 -2.069794093273980451e+00
1.117087758440196699e-01 2.631662923099666873e-01 -8.073983829042162552e-02 2.840626761267464606e-01 -1.755189282718076782e-02 -8.309548300495930850e-02 1.816227271719523043e-02 -4.418193953329438428e-01 -5.528067196304679021e-01 -3.692520655446281941e-01 1.452696424924937668e+00 4.136904983290929858e-03 -4.508018013302248633e-02 -1.256561363080712201e+00 7.125596433295348087e-01
-1.576980980541656252e-01 5.276279063915815248e-01 1.385259474380660993e+00 -9.111933032239539765e-01 4.359053438459545293e-01 1.298247687043477538e-01 -4.366540490859385781e-01 1.134725526112897454e-01 -1.599904936309848869e-01 5.164163539551996918e-02 -6.982987625462397929e-01 3.757538712138302484e-01 1.453611737649643354e+00 -3.801782255303293168e-01 -1.729818150962876055e+00
-1.655044814663893249e-01 1.515996984706555084e+00 4.237095731201980242e-01 -1.626891235069713101e-02 -3.793405601210339886e-03 1.371812090636964077e-01 8.942811008628036296e-02 -5.353360736631205263e-01 2.880319451840519518e-01 -1.403369810814038554e-01 7.966506574777695304e-01 -9.090983683697679840e-01 2.321114799108484894e-01 -1.773598895559195476e+00 6.028105623135227020e-02
1.721091312619628111e-01 -2.764408979213595074e-01 2.654046947204409257e-01 1.461332760436978850e-01 1.645588297244039711e-01 -5.860366853023418754e-02 -9.385225871452670399e-01 -1.367440701045546492e+00 9.193652975054280585e-01 1.450225594788863703e-01 1.329892824727967882e-01 -6.992053335202039754e-01 4.731606286240064296e-01 1.345229455073107871e+00 -4.243261236577947626e-01
2.462211798283773512e-01 -3.946165124316148853e-01 3.262647633832643779e-01 1.977646270265807082e-01 -1.169527978476990610e-01 4.675314553670659734e-01 -1.561060709779358291e-01 -1.502634961587746842e-01 3.010674382016312323e-01 -7.341332557184704344e-01 1.051241292310254094e+00 -8.326435306046120477e-01 4.450651559612262553e-01 -3.870636397908968074e-01 -2.619198214983449180e-01
3.462833725814639663e-01 1.062213217932190590e+00 4.105948901253128058e-01 -1.439684071835792278e-01 -3.593363491005264199e-01 8.598637997519714693e-01 6.802552747950035839e-01 1.635237035924754778e-01 5.023009976107203900e-02 2.663647446401182228e-01 3.736815620674458494e-01 -5.500546108087683850e-01 -1.148024300093987815e+00 -1.240054880798097114e+00 -7.702567408858047582e-01
1.525075549961993626e-01 9.461875598837301560e-01 4.161078495194535098e-01 1.172651868815522969e+00 2.441874372293822149e-01 -7.031504342078122305e-02 2.490869314097174103e-01 2.495430451101746383e-01 -6.087930051445490376e-01 -3.468161051560680191e-02 -3.043651351137312555e-01 3.152563280964660875e-01 -1.539567830029624051e+00 -1.135343105091757954e+00 -5.236308694201557978e-02
3.813089966997832425e-01 8.670839716438779599e-01 8.036635984550375422e-01 -1.124907511588848497e+00 7.028470440350165216e-01 2.454935576342994474e-01 -1.423753516660856699e-01 -7.205105227393103495e-02 -7.871535166279995666e-02 4.679412892106561972e-01 -3.761379940258275378e-01 6.642604420410863630e-01 4.172920996346205502e-01 -1.121726028539548281e+00 -1.634099065666455131e+00
1.669545836482265455e-01 3.245143563524225394e-01 6.839628055506937754e-01 1.293316311183967116e-01 -7.391407362314955827e-03 -2.111348776754989609e-01 -1.620874853676984237e-02 1.505607156839881000e-01 -3.104025995523662651e-01 -2.905490551769927543e-01 9.827167651295997119e-01 -8.024988887238810875e-01 1.070298823147512735e-02 -1.450444652778035026e+00 6.399974557475376358e-01
2.270962860883455059e-01 1.164966841472417705e-02 -4.755363279431865098e-01 -3.718622494719351357e-01 5.287849028132601825e-01 1.251006237594759485e-01 -6.313755184131886189e-02 5.300154327852943936e-01 -4.996795008295125684e-01 -4.335111325840275698e-01 2.129639604630149397e-01 -4.717732613592557911e-01 6.403800358976393658e-01 -1.282244112538818648e+00 1.324627719678382221e+00
-1.327084665857395596e+00 -3.601159075784218233e-01 -5.985173342581472378e-01 -9.024109290524653937e-02 2.661708834619080921e-02 1.984634528652745936e-02 -1.533045969755779739e-02 -5.958685837834510474e-02 -3.721748956161043398e-01 3.523403774041096170e-01 -6.414773827260226158e-01 -3.485850241296566954e-01 1.080431026477626455e+00 1.034279210547813799e+00 1.299512155577214223e+00
-1.517403378134684344e-01 2.129896714946077629e-01 1.049033743137691266e+00 9.797857075280137773e-02 6.386671669729232503e-02 2.253067982894825516e-01 7.030475900814407708e-02 2.613346384192913874e-01 3.404192004957648510e-01 6.882174670586800602e-02 3.585171956339778809e-01 2.849126828312063542e-01 -8.466231327022812059e-02 -8.956005910041491269e-01 -1.898872811671607375e+00
-6.735796625522338932e-01 2.280368984681386380e+00 -3.075481608249270860e-01 -1.372845674106997205e-01 9.559670078603897669e-02 4.518502971985816075e-01 -2.609577146961400973e-01 -7.249482467922375994e-03 1.836405289313598199e-01 -7.261206698328720455e-02 1.734090810192977228e-01 1.479351051377254256e-01 1.144413442817086457e+00 -2.541343154437746055e+00 -4.757965235829063610e-01
