1.020915802483962631e+00 2.763637109790437196e-01 -2.032256510150237117e-01 2.763637109790437196e-01 8.898666226691289705e-01 1.779529689163414086e-01 -2.032256510150237117e-01 1.779529689163414086e-01 -1.030470500891345287e+00
-5.989561741315277965e-01 -6.655656213828092804e-01 -1.964041148016144878e-01 -6.655656213828092804e-01 -7.111089103963116331e-01 5.008750377718207414e-02 -1.964041148016144878e-01 5.008750377718207414e-02 -9.232776216354360299e-02
-9.632708138136517606e-01 4.098665736212063759e-01 3.450512878636881331e-02 4.098665736212063759e-01 -2.365995617242170335e-01 3.989559294220588193e-01 3.450512878636881331e-02 3.989559294220588193e-01 -8.223156870347542169e-01
-2.032680726126169013e+00 1.931536382421928377e-01 3.560583533058976277e-03 1.931536382421928377e-01 -1.647082485333540181e+00 1.381351916550025982e-01 3.560583533058976277e-03 1.381351916550025982e-01 -7.092772631258069671e-01
7.730519956241116430e-01 -2.708063010632372203e-01 1.639478757624566740e-01 -2.708063010632372203e-01 9.064434991983726098e-02 -4.695949169805087031e-01 1.639478757624566740e-01 -4.695949169805087031e-01 -5.442735178148662145e-01
-1.510110862794237674e+00 4.571203366682001223e-01 8.852570221240529946e-02 4.571203366682001223e-01 2.239847837200229230e-01 3.939044658312881309e-01 8.852570221240529946e-02 3.939044658312881309e-01 -1.474007913320222185e-01
-1.553599344062055743e-01 -7.067388516900556528e-02 1.989227599719894379e-01 -7.067388516900556528e-02 -6.010958598874980297e-01 3.024511087057059622e-01 1.989227599719894379e-01 3.024511087057059622e-01 -7.226818955097459307e-01
-1.642712596092233412e-01 -8.904349182651154215e-02 -9.138194311807999737e-02 -8.904349182651154215e-02 -4.376223838829751966e-01 1.171309533077232734e-01 -9.138194311807999737e-02 1.171309533077232734e-01 -1.085106305541956084e+00
5.675926614350811361e-01 -6.099347035274546025e-01 -4.056005746156561287e-01 -6.099347035274546025e-01 -6.142815396710117337e-01 4.377533367043081047e-01 -4.056005746156561287e-01 4.377533367043081047e-01 1.094497533637694309e+00
-1.975592910478467301e+00 3.211322281046753990e-01 1.429242357892256305e-04 3.211322281046753990e-01 -1.465905576867473359e-01 5.920171607040536355e-02 1.429242357892256305e-04 5.920171607040536355e-02 -1.230205348680820931e-01
6.215072050695633066e-02 1.068430719037094870e-02 6.224638763191626262e-02 1.068430719037094870e-02 -4.488962413460604456e-02 -1.910020777238590484e-01 6.224638763191626262e-02 -1.910020777238590484e-01 -1.119549606292915278e-01
-1.256592225261234264e+00 -4.498888637307819072e-01 -2.966823851289658309e-01 -4.498888637307819072e-01 -5.597739375601580303e-01 -1.007043047113057380e-03 -2.966823851289658309e-01 -1.007043047113057380e-03 -1.705733238201730118e-01
-1.254747137924026701e+00 -1.967485120968547330e-01 -5.147173904768569813e-02 -1.967485120968547330e-01 1.019617010278074110e-01 8.833428674436001604e-02 -5.147173904768569813e-02 8.833428674436001604e-02 3.836978500288404370e-01
2.103882614063293244e-01 -3.871371164277171983e-01 2.593962990967638715e-01 -3.871371164277171983e-01 -4.998365219086546296e-01 -2.008175869216755616e-01 2.593962990967638715e-01 -2.008175869216755616e-01 -2.763764961122429087e-01
-6.592634006405109215e-01 -1.836872644670796972e-01 -1.885024340765951711e-01 -1.836872644670796972e-01 1.246715989051771778e-01 2.804458085389485156e-01 -1.885024340765951711e-01 2.804458085389485156e-01 2.113637121723070944e-01
-4.728899767117169528e-01 -2.945139070802140213e-01 -9.976349242330587175e-02 -2.945139070802140213e-01 -1.698091693662745705e+00 -6.051603879351399179e-02 -9.976349242330587175e-02 -6.051603879351399179e-02 -7.733204312334668318e-01
-9.270207314421533562e-01 5.525517293583992462e-01 2.267113205658431163e-01 5.525517293583992462e-01 1.655571865561749068e-01 -3.989853541122929670e-01 2.267113205658431163e-01 -3.989853541122929670e-01 -1.455709401250286250e+00
2.554165159080576397e-01 3.624130522750309558e-01 -4.026116820325144063e-01 3.624130522750309558e-01 6.828477859502638525e-01 4.085311707358683098e-01 -4.026116820325144063e-01 4.085311707358683098e-01 -2.468817552397655213e-01
5.287152215362793672e-01 1.350206588744357061e-01 3.681995377360043342e-01 1.350206588744357061e-01 -9.491397954908401546e-01 -2.888122202669207716e-01 3.681995377360043342e-01 -2.888122202669207716e-01 -6.902868508284583093e-01
1.004139722168379267e-01 2.133487375909899619e-01 6.938157022303263755e-02 2.133487375909899619e-01 4.746433145256530595e-01 4.993440788062579461e-02 6.938157022303263755e-02 4.993440788062579461e-02 -6.718903448686001090e-01
4.453590913524779205e-01 1.515376329562926061e-01 1.410591394488664996e-01 1.515376329562926061e-01 1.108794153995064091e+00 8.822320175722288271e-02 1.410591394488664996e-01 8.822320175722288271e-02 2.846006301284830786e-01
-2.263144384070017168e+00 -1.223810553350506147e-01 4.560955177634755386e-02 -1.223810553350506147e-01 -1.085751194048254487e+00 -4.181070976541898521e-01 4.560955177634755386e-02 -4.181070976541898521e-01 -1.134376622230278464e+00
-2.547870515086705923e-01 -3.981698787375327342e-01 -1.569716465018520246e-01 -3.981698787375327342e-01 6.333875226118901303e-02 1.135555826759063539e-02 -1.569716465018520246e-01 1.135555826759063539e-02 -3.844296649572212510e-01
3.126427791625902008e-01 -3.871503279727366298e-01 1.168750801607618683e-01 -3.871503279727366298e-01 -3.196690461325459309e-01 -6.014318948060565218e-03 1.168750801607618683e-01 -6.014318948060565218e-03 -5.272107433015171818e-01
3.934376741289491997e-01 5.821278836189393013e-01 2.912891123526009651e-01 5.821278836189393013e-01 4.633715161978662067e-01 -3.089664530248472651e-01 2.912891123526009651e-01 -3.089664530248472651e-01 -1.224018855290278873e+00
-9.518346706335294449e-01 2.294986256842647399e-01 -6.110214007249070017e-02 2.294986256842647399e-01 2.540192223365569935e-01 1.261675777739728610e-01 -6.110214007249070017e-02 1.261675777739728610e-01 -6.072163266679604376e-01
1.484537548636557514e+00 -3.693864501744853479e-02 -3.026367326634394339e-01 -3.693864501744853479e-02 -1.865861358375010548e-01 2.040542626100813606e-01 -3.026367326634394339e-01 2.040542626100813606e-01 -6.059238101096148243e-01
-2.401786005152597436e-01 1.985952965848154228e-01 2.415059483503564919e-01 1.985952965848154228e-01 -1.144936642206640709e+00 -3.153453946559059418e-01 2.415059483503564919e-01 -3.153453946559059418e-01 -6.072415203234613479e-01
1.019571398930352868e-01 5.188395362486126761e-01 -2.533544804832350006e-01 5.188395362486126761e-01 1.233540381018410237e+00 2.825411511303514422e-01 -2.533544804832350006e-01 2.825411511303514422e-01 2.913415259224156340e-01
-8.740118995964100135e-01 4.359201405350468517e-01 1.416852531769100809e-01 4.359201405350468517e-01 3.473217356894693908e-01 -1.918597735289495343e-01 1.416852531769100809e-01 -1.918597735289495343e-01 2.321514061501842308e-01
-9.960376776714933156e-01 5.428606485642853974e-01 -4.524476486941423348e-01 5.428606485642853974e-01 -5.907217962785187293e-01 8.230799828783519345e-01 -4.524476486941423348e-01 8.230799828783519345e-01 -4.075161869542274218e-01
4.532821283661002121e-01 -1.048811220898454161e-01 -2.949541972926488786e-01 -1.048811220898454161e-01 1.136186468765529867e+00 5.700866290839738948e-01 -2.949541972926488786e-01 5.700866290839738948e-01 -6.566033346682080551e-02
3.165831766551236992e-01 -9.355103291357688700e-02 6.654486579985935402e-02 -9.355103291357688700e-02 2.804055575571318126e-01 2.234424931852632967e-01 6.654486579985935402e-02 2.234424931852632967e-01 7.203988980342178605e-01
-2.057815186427197351e-01 -4.443806770834810016e-02 3.753640850498422138e-02 -4.443806770834810016e-02 3.873568949372362957e-01 1.073919666425140057e-01 3.753640850498422138e-02 1.073919666425140057e-01 -3.780389571628465228e-01
-4.003679537178639891e-01 -2.057576117019283557e-01 -8.846493614578329612e-03 -2.057576117019283557e-01 -6.178791799128274809e-01 -1.324910476737146403e-01 -8.846493614578329612e-03 -1.324910476737146403e-01 2.958417809382192787e-01
4.554389310796853052e-01 -7.354865085366231459e-02 7.137879237745609062e-02 -7.354865085366231459e-02 -2.820090353301721864e-01 1.876137647106806694e-01 7.137879237745609062e-02 1.876137647106806694e-01 -3.472889064380016433e-01
-1.610245221081826550e+00 -3.727244699692117691e-01 1.516170588639277894e-01 -3.727244699692117691e-01 -1.906059538065712378e+00 -1.863158943682686752e-01 1.516170588639277894e-01 -1.863158943682686752e-01 -1.792861183082539833e+00
-8.703799188533808406e-01 -4.609739246186387307e-01 3.049458670900558749e-02 -4.609739246186387307e-01 -6.202997844608485467e-01 -1.854193867836135406e-02 3.049458670900558749e-02 -1.854193867836135406e-02 -2.977987957586174517e-01
-3.064581128974046536e-03 1.993850177395642964e-01 1.841494974604302448e-01 1.993850177395642964e-01 -5.961202775533450682e-01 3.361364408524847303e-01 1.841494974604302448e-01 3.361364408524847303e-01 -7.740032658983611036e-01
-1.482155549271656270e+00 1.795386064596108389e-01 -4.778934091051762478e-01 1.795386064596108389e-01 1.872379680622917320e-01 5.865621432809926539e-01 -4.778934091051762478e-01 5.865621432809926539e-01 6.688128084462675593e-01
-9.219020241366890911e-01 1.281182307195493641e-01 2.102582987097605105e-01 1.281182307195493641e-01 -6.134054363256516984e-01 -8.821658469896330457e-02 2.102582987097605105e-01 -8.821658469896330457e-02 -9.352930837043390566e-01
7.805058608712230894e-01 2.706488171197005688e-01 1.222417131409803404e-01 2.706488171197005688e-01 4.371715307835798425e-01 4.065026565415188475e-01 1.222417131409803404e-01 4.065026565415188475e-01 1.769009278642889316e-01
-1.670753311571274935e+00 2.889928535452470082e-01 -2.899436542849692655e-01 2.889928535452470082e-01 -3.419493985669865288e-01 -2.293623861706945155e-01 -2.899436542849692655e-01 -2.293623861706945155e-01 -3.744926469198451846e-01
-1.841043242154556614e+00 6.231343668865888530e-01 3.359299694065439601e-01 6.231343668865888530e-01 -2.553381346540330166e-02 -3.309593601352887049e-01 3.359299694065439601e-01 -3.309593601352887049e-01 -1.350740027174153424e+00
-1.421913944695444021e-01 -5.930081388848630342e-01 -1.328872821024530415e-01 -5.930081388848630342e-01 -3.193288054358395245e-01 8.106393216895561027e-01 -1.328872821024530415e-01 8.106393216895561027e-01 7.641128815170215027e-01
-1.471252003572276923e+00 6.745156660345949344e-03 2.336511902964252818e-01 6.745156660345949344e-03 -1.411021927445939905e+00 -3.970574292076600176e-01 2.336511902964252818e-01 -3.970574292076600176e-01 -1.148457267790503833e+00
-9.963701797627885215e-01 3.360602591087032964e-01 4.347373067813126851e-02 3.360602591087032964e-01 -6.635553601393017198e-01 1.812579249790990110e-01 4.347373067813126851e-02 1.812579249790990110e-01 -1.648563907108585858e-01
-1.626323522768921226e+00 -7.412065789261657565e-03 1.705348819583100417e-01 -7.412065789261657565e-03 -1.258239807142571109e+00 -6.559870125578642908e-02 1.705348819583100417e-01 -6.559870125578642908e-02 -1.001183905147165154e+00
-6.558878082252137531e-01 -1.205054260264181581e-01 -1.805511340200556258e-01 -1.205054260264181581e-01 -6.414247737977780695e-01 2.902940805684827152e-01 -1.805511340200556258e-01 2.902940805684827152e-01 -4.033301043395667862e-01
-7.662224382797442335e-01 -1.801942543121146378e-01 -1.607874104762712641e-01 -1.801942543121146378e-01 -4.088347932047319833e-01 3.616914513895088668e-01 -1.607874104762712641e-01 3.616914513895088668e-01 2.262200249641029837e-01
-9.030197787550269251e-01 5.104152593036680452e-01 8.873826286087271864e-02 5.104152593036680452e-01 -1.394367441581154388e-01 -5.642640701797754232e-01 8.873826286087271864e-02 -5.642640701797754232e-01 -1.890539303379194624e+00
7.762163739983303501e-02 5.400799151861643971e-02 4.007625811252674142e-01 5.400799151861643971e-02 -1.869136970784938401e-01 -4.696894188381867119e-01 4.007625811252674142e-01 -4.696894188381867119e-01 -5.950637158716032271e-01
-1.999402631751160120e-01 6.603993480626224599e-02 2.926990052882084137e-01 6.603993480626224599e-02 -1.007455825424982271e-01 1.406735001686819364e-01 2.926990052882084137e-01 1.406735001686819364e-01 -2.418051879606198107e-01
1.011504588064948473e+00 -3.753873272838357394e-02 -2.069637309922153223e-01 -3.753873272838357394e-02 -3.373701856640267532e-02 7.417169008185933721e-02 -2.069637309922153223e-01 7.417169008185933721e-02 1.049362420147253450e-01
-1.086299617173593024e+00 7.563503634371260276e-02 3.634821859859699300e-01 7.563503634371260276e-02 -2.946141289343929270e-01 -4.168844149045337066e-01 3.634821859859699300e-01 -4.168844149045337066e-01 3.179801247525021468e-01
-4.145187677115456104e-01 3.310762963487591803e-01 -1.832942103372574016e-01 3.310762963487591803e-01 2.387495832590744715e-01 -1.714568685534820502e-01 -1.832942103372574016e-01 -1.714568685534820502e-01 -1.195774417742051288e+00
1.209854613151293279e-01 1.030972334978292743e-01 2.966588932644276255e-02 1.030972334978292743e-01 1.099191813759465008e-01 2.070682706585319777e-01 2.966588932644276255e-02 2.070682706585319777e-01 1.405463047260381571e-01
8.284958842465198758e-01 6.738537481234350979e-02 -3.376815262268519913e-01 6.738537481234350979e-02 9.705810918960244837e-01 3.444265779050236231e-01 -3.376815262268519913e-01 3.444265779050236231e-01 6.288418455681579200e-01
-4.661948780980907370e-01 7.410281779497648880e-02 -2.757925017559819114e-01 7.410281779497648880e-02 -1.144183572426704099e-01 5.703288585352930262e-01 -2.757925017559819114e-01 5.703288585352930262e-01 3.228605551671084872e-02
8.103646420847470111e-01 -1.339613058015847180e-01 -3.713232373150143067e-02 -1.339613058015847180e-01 7.053558157585790300e-02 3.120634383158631467e-02 -3.713232373150143067e-02 3.120634383158631467e-02 -2.585966505608893740e-01
-7.597295269386419303e-01 2.312132146094938445e-01 -1.077275227221244774e-01 2.312132146094938445e-01 6.414286678037101064e-01 7.440223775399131823e-01 -1.077275227221244774e-01 7.440223775399131823e-01 6.130079027868213792e-01
-7.981949615476977566e-01 -7.969529363516285325e-02 -5.014459384924089269e-01 -7.969529363516285325e-02 -2.668314401283492510e-01 8.490555463923198792e-03 -5.014459384924089269e-01 8.490555463923198792e-03 -7.752902496074693950e-01
-4.837676353803652129e-02 1.069073940732502420e-01 2.971271723855195002e-01 1.069073940732502420e-01 -7.554107397349235642e-01 8.801028163494903356e-02 2.971271723855195002e-01 8.801028163494903356e-02 -3.526314970462194331e-01
-1.396639063699415262e-01 5.919189517898932884e-01 1.849561889596081921e-01 5.919189517898932884e-01 -4.246262344142438111e-02 2.467070284269152203e-01 1.849561889596081921e-01 2.467070284269152203e-01 -9.172186055532841609e-01
-2.903780949612912859e-02 -7.407221812224348279e-01 1.684242209247543698e-01 -7.407221812224348279e-01 -7.632421901997079594e-01 -2.495982772627254875e-01 1.684242209247543698e-01 -2.495982772627254875e-01 3.879833986580816241e-01
6.492194463552622974e-01 -2.231028615920708780e-01 5.241886057718713188e-01 -2.231028615920708780e-01 -4.861627434595053865e-01 -1.037614755767814367e+00 5.241886057718713188e-01 -1.037614755767814367e+00 3.470276109069022619e-01
3.420297444467785830e-01 -2.320714471274674673e-01 -3.062392018409129113e-01 -2.320714471274674673e-01 -6.369231276620541671e-01 1.111964461214944022e-01 -3.062392018409129113e-01 1.111964461214944022e-01 -8.740760026755854672e-02
2.821313752566513289e-01 6.743742525962125312e-01 3.324237722272543882e-01 6.743742525962125312e-01 5.152339941964093617e-01 -4.680817592816866740e-02 3.324237722272543882e-01 -4.680817592816866740e-02 -1.326605231976702770e+00
-7.538366648156139549e-01 1.417706760790505560e-01 -2.294514304674626637e-01 1.417706760790505560e-01 7.343384052551699126e-02 3.176016205756109767e-01 -2.294514304674626637e-01 3.176016205756109767e-01 -1.412566028915511307e+00
-1.150209444798794944e+00 -1.115663727979314679e-01 2.325554976505113114e-01 -1.115663727979314679e-01 -5.356800588326114942e-01 9.853234960555365060e-03 2.325554976505113114e-01 9.853234960555365060e-03 -9.873148051543719772e-01
1.428943581217308190e-01 4.056382659232443122e-01 2.404495687416545180e-01 4.056382659232443122e-01 -7.933085340956813614e-02 1.830129709816032402e-01 2.404495687416545180e-01 1.830129709816032402e-01 -1.399215258517226612e+00
1.198751643410739948e-01 -1.831010220775761144e-01 7.197103166244299410e-02 -1.831010220775761144e-01 -1.017532497178367690e+00 -3.936814576630418006e-01 7.197103166244299410e-02 -3.936814576630418006e-01 -4.973483327278799826e-01
-4.333900633904013144e-01 3.684165870913999608e-01 -1.240983306223389926e-01 3.684165870913999608e-01 1.587399218088776653e-01 4.446558056244508950e-01 -1.240983306223389926e-01 4.446558056244508950e-01 -1.194837875245845948e+00
-5.358196640139315514e-01 -2.831236370112834022e-01 -1.506502413391209716e-01 -2.831236370112834022e-01 -1.737868888628538055e+00 2.167159867196370368e-02 -1.506502413391209716e-01 2.167159867196370368e-02 -1.075241754202151956e+00
-9.247413848310056528e-01 4.704429036152179000e-01 1.695398871111798433e-01 4.704429036152179000e-01 -4.445963362264916674e-03 2.430226630756624207e-01 1.695398871111798433e-01 2.430226630756624207e-01 -4.044232532197305496e-01
-1.749461011775716335e+00 -6.658814771370088481e-01 1.477770663622525738e-01 -6.658814771370088481e-01 -9.662059429990458304e-01 -3.765229984864442714e-01 1.477770663622525738e-01 -3.765229984864442714e-01 2.949352684095540300e-01
-3.922586205711510732e-01 6.400115881615422997e-02 2.813527449666448632e-01 6.400115881615422997e-02 -1.591978936362178354e+00 -2.310855238300646985e-01 2.813527449666448632e-01 -2.310855238300646985e-01 -5.053725517136826717e-01
-1.439971765344071786e+00 -2.867139579559586093e-01 1.045636311473079894e-01 -2.867139579559586093e-01 -8.727956910575900284e-01 -3.265075643905168135e-01 1.045636311473079894e-01 -3.265075643905168135e-01 -7.029305069697534547e-01
2.145769169973742729e-01 -2.322984185922489508e-01 -1.016414353846878654e-03 -2.322984185922489508e-01 2.612004646699503940e-01 -2.138475365843087173e-01 -1.016414353846878654e-03 -2.138475365843087173e-01 -8.194089437330383252e-02
-1.968946922987214188e-01 -3.043047503063024406e-01 -6.489921484130810325e-02 -3.043047503063024406e-01 3.236347191712019566e-01 1.105121160047186218e-01 -6.489921484130810325e-02 1.105121160047186218e-01 3.957116726645834581e-02
-8.288945843122271784e-01 -1.588117606331287957e-01 -3.888955774504937457e-01 -1.588117606331287957e-01 -1.232839010893433285e+00 -3.178048037407779636e-01 -3.888955774504937457e-01 -3.178048037407779636e-01 2.608309269930384477e-01
-1.564989546322014702e+00 1.214607876175357870e-01 -4.683876793251474657e-01 1.214607876175357870e-01 -4.158226639138495329e-01 2.076751499074021290e-02 -4.683876793251474657e-01 2.076751499074021290e-02 -4.391068790763801299e-01
1.218423452078841035e-01 1.542885698028972630e-01 6.105046689624729073e-01 1.542885698028972630e-01 -1.028491146873830253e+00 -1.975885354474906097e-01 6.105046689624729073e-01 -1.975885354474906097e-01 -6.755246675687895941e-01
-1.421136260586898681e+00 2.366586886010014212e-01 -7.112808099538955875e-02 2.366586886010014212e-01 -4.865998296719071248e-01 -5.838027081496282022e-01 -7.112808099538955875e-02 -5.838027081496282022e-01 -1.561495410022275543e+00
-1.084531430957027309e+00 -2.141152910550950250e-01 -3.531577044615671207e-02 -2.141152910550950250e-01 -1.401571540044408204e+00 -6.819514039444662945e-01 -3.531577044615671207e-02 -6.819514039444662945e-01 -6.903229744514599586e-01
-3.903426418989766611e-01 -4.267443269524541227e-01 2.201939654373352706e-01 -4.267443269524541227e-01 -1.402113999048265613e+00 -2.112893835477381854e-01 2.201939654373352706e-01 -2.112893835477381854e-01 -1.310647802428768438e+00
-1.357340183606877915e+00 -1.410901905505078657e-01 1.128215208973519165e-02 -1.410901905505078657e-01 -1.306557516756132520e+00 -3.186478716963651175e-02 1.128215208973519165e-02 -3.186478716963651175e-02 -1.394073408662969360e+00
-1.015750584147266933e+00 5.566181136817957009e-01 -4.052382021395278255e-01 5.566181136817957009e-01 -1.139662881793851446e+00 7.449417417837290722e-01 -4.052382021395278255e-01 7.449417417837290722e-01 -9.916249980089945071e-01
-6.242172425515710721e-01 1.395809148291575486e-01 -1.578323615230204646e-01 1.395809148291575486e-01 -3.392194558686179029e-01 -1.867770250974048196e-01 -1.578323615230204646e-01 -1.867770250974048196e-01 -8.237938520391298314e-02
6.410946080290643723e-01 1.685855461844316117e-01 -1.508734684602002496e-01 1.685855461844316117e-01 -3.461765492627935092e-01 1.722704772699605313e-01 -1.508734684602002496e-01 1.722704772699605313e-01 -1.658170049112189515e-01
-8.057074965142473344e-01 8.394843217295384630e-01 -4.804268249708808503e-01 8.394843217295384630e-01 -3.322152162711778378e-01 -3.904711308359055666e-01 -4.804268249708808503e-01 -3.904711308359055666e-01 -1.293230171767663306e+00
-4.657414518595702213e-01 -2.702261074873094637e-01 -4.062973055952489587e-01 -2.702261074873094637e-01 5.118037734742357861e-03 -2.942247616282002154e-01 -4.062973055952489587e-01 -2.942247616282002154e-01 -7.489811245972492239e-03
-1.676503148760863926e+00 1.940095387336875921e-01 2.493203279957867478e-03 1.940095387336875921e-01 -2.130164356198741005e-01 7.953977213785085043e-01 2.493203279957867478e-03 7.953977213785085043e-01 -1.197592831580609474e+00
-3.703677910707048326e-01 2.197480526779840848e-02 1.114154355249780542e-01 2.197480526779840848e-02 -1.054408167868705337e-01 -2.492070699434765224e-01 1.114154355249780542e-01 -2.492070699434765224e-01 3.158639867386974776e-01
2.269705399998091511e-01 1.186288877416481896e-01 5.349920293235191360e-02 1.186288877416481896e-01 -5.166390333849151251e-01 -2.537265510379234645e-01 5.349920293235191360e-02 -2.537265510379234645e-01 -2.590929485712235511e-02
-4.475765850915567334e-01 -1.777594187353749577e-01 1.587097209233781780e-01 -1.777594187353749577e-01 -8.335884492734967344e-01 -6.324446071119401713e-01 1.587097209233781780e-01 -6.324446071119401713e-01 -7.897549849123445265e-01
-1.486419105907500204e-01 3.455324683762580618e-01 -1.319148437404964458e-01 3.455324683762580618e-01 -7.791768863837940096e-01 -2.028490578881610440e-01 -1.319148437404964458e-01 -2.028490578881610440e-01 -9.814392639241814598e-01
1.181724795506624348e+00 -2.905736127257755319e-01 -4.177161992165533411e-01 -2.905736127257755319e-01 6.207379534919388320e-01 3.825157218617616928e-01 -4.177161992165533411e-01 3.825157218617616928e-01 2.069430520568870946e-01
-3.849770561798908641e-01 -2.068095812623491070e-01 -3.504965623895964777e-01 -2.068095812623491070e-01 -8.741233640966198370e-01 1.337182343995305944e-01 -3.504965623895964777e-01 1.337182343995305944e-01 -6.981004947278279804e-01
4.685492487524922089e-01 2.417284701292636909e-02 6.481305314254404322e-03 2.417284701292636909e-02 -6.089133607197686482e-01 1.390217816171127052e-01 6.481305314254404322e-03 1.390217816171127052e-01 -3.409986973771271246e-01
-9.088199023221179562e-01 -5.701618394792446615e-02 -3.242463517385205801e-02 -5.701618394792446615e-02 -6.755435211159536157e-01 -2.973455175638842901e-02 -3.242463517385205801e-02 -2.973455175638842901e-02 -1.668979994434709457e-01
-1.411227549043546414e+00 -2.022707397491317061e-01 6.824344756198814921e-02 -2.022707397491317061e-01 -6.188397296979784024e-01 -2.028438270786925290e-01 6.824344756198814921e-02 -2.028438270786925290e-01 -9.638686274490505801e-02
1.407911357962664312e+00 2.116905790732521719e-01 1.279363826561442929e-02 2.116905790732521719e-01 2.097331495820578262e-01 1.583204290170882322e-01 1.279363826561442929e-02 1.583204290170882322e-01 5.723975824455010408e-02
-5.407039907948304330e-02 -5.938228365506912354e-01 3.732810798299115301e-02 -5.938228365506912354e-01 -7.425818280284375399e-03 8.960797555190804786e-01 3.732810798299115301e-02 8.960797555190804786e-01 2.089739864146375747e-01
-6.555394265736202986e-01 1.846550417240173936e-01 3.198586354856068903e-01 1.846550417240173936e-01 -1.157793352921482333e+00 1.494592220741187416e-01 3.198586354856068903e-01 1.494592220741187416e-01 -8.911751476618262613e-01
5.594349378431001663e-01 -6.228606823539002690e-02 -3.438206334565090949e-01 -6.228606823539002690e-02 -5.754022318965983374e-01 1.282189058153883621e-01 -3.438206334565090949e-01 1.282189058153883621e-01 -1.713215424745874807e-02
3.594410008080730634e-01 5.528966093333945730e-01 5.078316788952531163e-02 5.528966093333945730e-01 3.848294633629201766e-01 -3.269402354634333707e-01 5.078316788952531163e-02 -3.269402354634333707e-01 -1.663075554517789434e-01
-1.077032695539682727e+00 -1.968970594992583423e-01 -6.554021061439040396e-01 -1.968970594992583423e-01 -8.724161043895217738e-01 5.143144726548993795e-01 -6.554021061439040396e-01 5.143144726548993795e-01 4.470015074818686762e-02
1.373216690600007617e+00 -2.820206798034477491e-01 -8.991800543095644638e-02 -2.820206798034477491e-01 -4.227762218313029785e-01 2.745389103139111997e-02 -8.991800543095644638e-02 2.745389103139111997e-02 -6.644549170291604856e-01
1.712973736188534435e-01 -1.118394293595006139e-01 5.114813427038066018e-02 -1.118394293595006139e-01 -8.166509495571522281e-01 -7.365680687205580224e-01 5.114813427038066018e-02 -7.365680687205580224e-01 -1.162011435535796666e+00
-4.925295239510882328e-01 2.616449825914475905e-02 -4.180972228113481459e-01 2.616449825914475905e-02 6.382223150294381864e-02 7.071629541118481521e-01 -4.180972228113481459e-01 7.071629541118481521e-01 -1.500649786373007832e-01
-6.140779314761746210e-01 -4.846331804629876450e-01 2.913985019882159300e-01 -4.846331804629876450e-01 -4.874207877013653212e-01 3.429307471182576617e-01 2.913985019882159300e-01 3.429307471182576617e-01 5.804168170417943751e-01
2.852458633440342339e-01 -1.682359950701268758e-01 1.381030096451352773e-01 -1.682359950701268758e-01 2.984065518728312161e-01 2.397759841204338480e-02 1.381030096451352773e-01 2.397759841204338480e-02 6.559843705228182165e-01
3.531756039198855057e-01 5.636970860018409440e-02 3.035771418458668158e-01 5.636970860018409440e-02 -4.433646672784164466e-01 -1.290621613656699543e-02 3.035771418458668158e-01 -1.290621613656699543e-02 -2.707278255748828411e-01
-1.798062527971782565e+00 5.353752745171441729e-02 -3.943297770659646706e-01 5.353752745171441729e-02 -8.310067469237218951e-01 4.162599601361461482e-02 -3.943297770659646706e-01 4.162599601361461482e-02 -1.654480221704328846e+00
4.318428407938897373e-01 5.444870701502579902e-01 -2.833262848939409051e-01 5.444870701502579902e-01 8.875668927284234844e-01 4.474239070510115795e-02 -2.833262848939409051e-01 4.474239070510115795e-02 7.010000019604761823e-01
-1.080148594711173526e+00 7.065505956422521439e-02 8.442521357393099890e-02 7.065505956422521439e-02 -5.710834168230031205e-01 -2.493673241911302241e-01 8.442521357393099890e-02 -2.493673241911302241e-01 -7.794399016983062367e-01
-2.172876838940909661e+00 -2.020266681346361837e-01 -8.687809208129085303e-02 -2.020266681346361837e-01 -9.560927660653623095e-01 -4.233297903072503754e-01 -8.687809208129085303e-02 -4.233297903072503754e-01 -7.074248842021000350e-01
1.232978905840054207e-01 -4.164772737250685974e-01 -1.386259615264092970e-01 -4.164772737250685974e-01 -9.503090235348473636e-01 -4.687755602905406271e-01 -1.386259615264092970e-01 -4.687755602905406271e-01 4.008464400024258079e-01
-1.025654921224818716e+00 -2.091717387505183379e-01 -7.263244225057262360e-02 -2.091717387505183379e-01 -7.063079293303460293e-01 -2.829900002641471124e-01 -7.263244225057262360e-02 -2.829900002641471124e-01 -7.108767256191292905e-01
-5.442480223019849905e-01 4.062602896475410730e-01 -6.208619365281334845e-01 4.062602896475410730e-01 -2.938381315437594288e-01 2.678206745227896257e-01 -6.208619365281334845e-01 2.678206745227896257e-01 -6.214602652244309855e-01
-3.976457618519116388e-01 4.841878280212459640e-02 -4.118493744248392652e-01 4.841878280212459640e-02 -5.063111031506315474e-01 3.512550851857285661e-01 -4.118493744248392652e-01 3.512550851857285661e-01 -1.915208138312950892e+00
8.362165467018901899e-02 -1.346843048663854542e-02 -1.006981682966686664e-01 -1.346843048663854542e-02 -4.224700764647493223e-01 -7.140368692238471260e-01 -1.006981682966686664e-01 -7.140368692238471260e-01 -8.620413507787279273e-02
-1.698663021406618956e+00 -2.537456216815586404e-02 -4.849367908657838955e-01 -2.537456216815586404e-02 -1.528222458333819533e+00 4.702505595897633200e-02 -4.849367908657838955e-01 4.702505595897633200e-02 -1.740124844274646698e-01
-9.497087381154780683e-01 -1.680726363157188097e-02 2.472911818761067693e-01 -1.680726363157188097e-02 -1.592644875683289496e-01 -2.670038580510205456e-02 2.472911818761067693e-01 -2.670038580510205456e-02 -1.125241493457247000e+00
-1.745340312603833821e+00 -3.648673495415473700e-01 -2.926431130214963289e-02 -3.648673495415473700e-01 -1.789094549919387100e+00 -7.855227567248793119e-02 -2.926431130214963289e-02 -7.855227567248793119e-02 -1.556933364199973635e+00
-8.472661886382629737e-01 8.837352679108909093e-02 2.249003046712165499e-01 8.837352679108909093e-02 -9.369690988644134855e-01 -7.020448993307340513e-02 2.249003046712165499e-01 -7.020448993307340513e-02 -3.846454927143768687e-01
7.322149668242158849e-02 2.271293145147175452e-01 -1.830374107916145484e-03 2.271293145147175452e-01 -1.879162323488108854e-01 2.242371252201276755e-01 -1.830374107916145484e-03 2.242371252201276755e-01 -2.329070146468740776e-01
-1.341734326459699922e+00 -3.105491453842860183e-01 4.149066526928008591e-01 -3.105491453842860183e-01 -1.028263812831997415e+00 -5.456974590637017064e-01 4.149066526928008591e-01 -5.456974590637017064e-01 -6.196977399792111818e-01
-4.028039816576274301e-01 3.149442634057423862e-01 -7.482413714073918309e-02 3.149442634057423862e-01 -1.045628636087530872e+00 -9.619294852598017087e-01 -7.482413714073918309e-02 -9.619294852598017087e-01 -9.521528143713671177e-01